# vtk DataFile Version 2.0
track0
ASCII
DATASET POLYDATA
POINTS 250 float
0.0224197 0.00142078 0.005
0.0230122 0.00199182 0.005
0.0242423 0.0029789 0.005
0.0254848 0.00446924 0.005
0.0267021 0.00486957 0.005
0.0285391 0.00573703 0.005
0.0315487 0.00768224 0.005
0.0344303 0.00839608 0.005
0.0369897 0.00793857 0.005
0.0390419 0.00639215 0.005
0.040414 0.00386057 0.005
0.0409514 0.00193932 0.005
0.0410725 0.00500866 0.005
0.0409849 0.00741926 0.005
0.0405703 0.00926131 0.005
0.0397247 0.0106391 0.005
0.0383592 0.0116692 0.005
0.0364018 0.0124792 0.005
0.033798 0.0132052 0.005
0.030512 0.0139903 0.005
0.0265274 0.0149825 0.005
0.0218476 0.0163326 0.005
0.0164961 0.0181918 0.005
0.0105165 0.0207099 0.005
0.00397266 0.0240327 0.005
0.0212579 0.00679167 0.005
0.0210375 0.00511001 0.005
0.0215768 0.00422412 0.005
0.022953 0.00195858 0.005
0.0248502 0.0023331 0.005
0.0263339 0.00215955 0.005
0.026991 0.00205813 0.005
0.0286162 0.00317501 0.005
0.0299559 0.00325573 0.005
0.0308371 0.00237944 0.005
0.0311779 0.00174908 0.005
0.0312476 0.00301787 0.005
0.030885 0.00359929 0.005
0.0299654 0.00360199 0.005
0.0303562 0.00338949 0.005
0.03031 0.00262704 0.005
0.0294296 0.00140653 0.005
0.0303151 0.00281338 0.005
0.030893 0.00411465 0.005
0.0308195 0.00503712 0.005
0.0300353 0.00572843 0.005
0.0285013 0.00634256 0.005
0.0261986 0.00703767 0.005
0.0231693 0.00799693 0.005
0.0222059 0.0107483 0.005
0.0186476 0.0120534 0.005
0.0191831 0.00939805 0.005
0.0206825 0.00790861 0.005
0.0217194 0.0074547 0.005
0.0228997 0.0063351 0.005
0.0243732 0.0047524 0.005
0.0245299 0.00307758 0.005
0.0249315 0.00168195 0.005
0.0258781 0.00431847 0.005
0.0271698 0.00643887 0.005
0.0282 0.00764185 0.005
0.0288144 0.00801328 0.005
0.0288712 0.0076572 0.005
0.0282432 0.00669435 0.005
0.026865 0.00537919 0.005
0.0251444 0.00489893 0.005
0.022547 0.00647046 0.005
0.0194527 0.00856584 0.005
0.0200813 0.011892 0.005
0.0202714 0.0148492 0.005
0.0199649 0.0175661 0.005
0.0191221 0.020178 0.005
0.0177222 0.0228241 0.005
0.0157639 0.0256459 0.005
0.0132653 0.0287849 0.005
0.0147643 0.0164604 0.005
0.0159068 0.014394 0.005
0.0182717 0.0128457 0.005
0.0202546 0.01011 0.005
0.0202923 0.00887118 0.005
0.0197186 0.00866683 0.005
0.0214176 0.00533494 0.005
0.0218713 0.00232833 0.005
0.0242845 0.0022683 0.005
0.025736 0.00318194 0.005
0.0267671 0.00315615 0.005
0.0272216 0.00229189 0.005
0.0270621 0.00170244 0.005
0.0272724 0.00287488 0.005
0.0258465 0.00297052 0.005
0.0251162 0.00175783 0.005
0.026715 0.00205935 0.005
0.0257497 0.00183527 0.005
0.0236665 0.00147103 0.005
0.021576 0.00146826 0.005
0.024138 0.00179947 0.005
0.0258527 0.0016236 0.005
0.0266408 0.00136654 0.005
0.0265035 0.00185539 0.005
0.0255532 0.0023573 0.005
0.00987282 0.019712 0.005
0.0113316 0.0184943 0.005
0.0134791 0.0180035 0.005
0.0153615 0.0163654 0.005
0.0167851 0.013633 0.005
0.0185225 0.0123463 0.005
0.019569 0.0134267 0.005
0.0203506 0.0135554 0.005
0.0207003 0.0128053 0.005
0.0204618 0.0112692 0.005
0.0202531 0.00832694 0.005
0.0217326 0.00528187 0.005
0.0235978 0.0019314 0.005
0.0242365 0.00416203 0.005
0.0237404 0.00725545 0.005
0.0229038 0.00988103 0.005
0.0216372 0.0121491 0.005
0.0198672 0.0141806 0.005
0.0175376 0.0161058 0.005
0.0146106 0.0180616 0.005
0.0110672 0.0201902 0.005
0.00690771 0.0226366 0.005
0.00215236 0.0255467 0.005
0.00512965 0.0279656 0.005
0.00928086 0.0297351 0.005
0.0043064 0.0215869 0.005
0.00567287 0.0210098 0.005
0.00724875 0.0212855 0.005
0.00863668 0.0204937 0.005
0.00980906 0.0190319 0.005
0.0117168 0.0189485 0.005
0.0132322 0.0178111 0.005
0.0142714 0.015816 0.005
0.0163806 0.014868 0.005
0.0178459 0.0129246 0.005
0.0184415 0.0112352 0.005
0.0199825 0.0103132 0.005
0.020762 0.00856969 0.005
0.0206454 0.00614612 0.005
0.0219067 0.00399779 0.005
0.0216069 0.0023329 0.005
0.0228171 0.0014297 0.005
0.0225215 0.0026916 0.005
0.0215644 0.00362337 0.005
0.0214591 0.00446283 0.005
0.0220418 0.00506849 0.005
0.0218208 0.00542632 0.005
0.0207612 0.00570137 0.005
0.0211224 0.00651782 0.005
0.0215496 0.00700125 0.005
-0.0015556 0.0219572 0.005
-0.00225121 0.0213706 0.005
-0.00369992 0.0218483 0.005
-0.00409064 0.0218131 0.005
-0.00452942 0.0210016 0.005
-0.00565643 0.0212075 0.005
-0.00721331 0.0212852 0.005
-0.00924194 0.0207841 0.005
-0.0118717 0.0197981 0.005
-0.0152196 0.0184383 0.005
-0.0193882 0.0168313 0.005
-0.024464 0.0151178 0.005
-0.0305161 0.0134509 0.005
-0.0375947 0.011994 0.005
-0.04573 0.010919 0.005
-0.0549312 0.0104044 0.005
0.0259604 -0.0607456 0.005
0.0396641 -0.0664358 0.005
0.0550442 -0.070968 0.005
0.0651591 -0.0681723 0.005
0.0526111 -0.0649194 0.005
0.0399584 -0.0652248 0.005
0.0286124 -0.0674768 0.005
0.0187658 -0.0714453 0.005
0.0105836 -0.0768845 0.005
-0.00731369 0.0207976 0.005
-0.00649187 0.0206613 0.005
-0.00643471 0.0214807 0.005
-0.00777686 0.0212508 0.005
-0.00973013 0.0203247 0.005
-0.0121761 0.0188225 0.005
-0.0152491 0.0168302 0.005
-0.0190723 0.0144517 0.005
-0.0237561 0.0118077 0.005
-0.029396 0.00903403 0.005
-0.0360711 0.00628036 0.005
-0.0434626 0.00664466 0.005
-0.0510773 0.0101371 0.005
-0.00265072 -0.0607241 0.005
0.00350927 -0.0700259 0.005
0.0116421 -0.0792729 0.005
0.0217894 -0.0881991 0.005
0.0274058 -0.0904028 0.005
0.0269541 -0.0865488 0.005
0.0270875 -0.0834203 0.005
0.0279082 -0.0808659 0.005
0.0294979 -0.0787243 0.005
0.0319168 -0.076826 0.005
0.0352029 -0.0749957 0.005
0.0393718 -0.0730544 0.005
-0.0125754 0.0181874 0.005
-0.0118574 0.0178992 0.005
-0.0124588 0.0185642 0.005
-0.0132597 0.0184259 0.005
-0.0144211 0.0175331 0.005
-0.0160973 0.015955 0.005
-0.0184329 0.0137808 0.005
-0.0215614 0.0111184 0.005
-0.025603 0.00809352 0.005
-0.0306625 0.00484772 0.005
-0.0368279 0.00153725 0.005
-0.0436855 0.00124332 0.005
-0.0510839 0.00376606 0.005
-0.0590511 0.00662248 0.005
0.0114654 -0.0673683 0.005
0.0202145 -0.0753416 0.005
0.0308456 -0.0829104 0.005
0.042427 -0.0881824 0.005
0.046971 -0.0724338 0.005
0.0523114 -0.0550309 0.005
0.0383923 -0.0610501 0.005
0.0256486 -0.0704061 0.005
0.0152931 -0.081659 0.005
0.0075094 -0.094479 0.005
0.00258565 -0.0895982 0.005
-0.0169824 0.0143041 0.005
-0.0162353 0.0138815 0.005
-0.0171516 0.013882 0.005
-0.0185344 0.0133041 0.005
-0.0203501 0.0120297 0.005
-0.0227473 0.0101354 0.005
-0.0258651 0.00771712 0.005
-0.0298305 0.00488937 0.005
-0.0347565 0.00178349 0.005
-0.0399925 0.0037942 0.005
-0.0454865 0.00680505 0.005
-0.0514036 0.00980364 0.005
-0.0578075 0.0129001 0.005
-0.00379121 -0.0666455 0.005
0.00342761 -0.0748647 0.005
0.0124757 -0.0829258 0.005
0.0233862 -0.0905765 0.005
0.0363053 -0.089119 0.005
0.0467818 -0.0806293 0.005
0.0555747 -0.0733102 0.005
0.0638048 -0.066231 0.005
0.0571146 -0.0759303 0.005
0.0503475 -0.0819475 0.005
0.0408639 -0.0814437 0.005
0.0325715 -0.0824385 0.005
LINES 10 260
25 0 1 2 3 4 5 6 7 8 9 10 11 12 13 14 15 16 17 18 19 20 21 22 23 24
25 25 26 27 28 29 30 31 32 33 34 35 36 37 38 39 40 41 42 43 44 45 46 47 48 49
25 50 51 52 53 54 55 56 57 58 59 60 61 62 63 64 65 66 67 68 69 70 71 72 73 74
25 75 76 77 78 79 80 81 82 83 84 85 86 87 88 89 90 91 92 93 94 95 96 97 98 99
25 100 101 102 103 104 105 106 107 108 109 110 111 112 113 114 115 116 117 118 119 120 121 122 123 124
25 125 126 127 128 129 130 131 132 133 134 135 136 137 138 139 140 141 142 143 144 145 146 147 148 149
25 150 151 152 153 154 155 156 157 158 159 160 161 162 163 164 165 166 167 168 169 170 171 172 173 174
25 175 176 177 178 179 180 181 182 183 184 185 186 187 188 189 190 191 192 193 194 195 196 197 198 199
25 200 201 202 203 204 205 206 207 208 209 210 211 212 213 214 215 216 217 218 219 220 221 222 223 224
25 225 226 227 228 229 230 231 232 233 234 235 236 237 238 239 240 241 242 243 244 245 246 247 248 249
POINT_DATA 250
 FIELD attributes 0
