/*--------------------------------*- C++ -*----------------------------------*\
  =========                 |
  \\      /  F ield         | OpenFOAM: The Open Source CFD Toolbox
   \\    /   O peration     | Website:  https://openfoam.org
    \\  /    A nd           | Version:  8
     \\/     M anipulation  |
\*---------------------------------------------------------------------------*/
FoamFile
{
    version     2.0;
    format      ascii;
    class       volScalarField;
    location    "0.22";
    object      p;
}
// * * * * * * * * * * * * * * * * * * * * * * * * * * * * * * * * * * * * * //

dimensions      [0 2 -2 0 0 0 0];

internalField   nonuniform List<scalar> 
12225
(
-1.61635
-1.84977
-1.83937
-1.82341
-1.8158
-1.80628
-1.79585
-1.78533
-1.77474
-1.76413
-1.75355
-1.74299
-1.73248
-1.722
-1.71154
-1.7011
-1.69074
-1.68196
-1.65894
-1.84372
-1.8366
-1.82183
-1.81478
-1.80554
-1.79525
-1.78482
-1.7743
-1.76373
-1.75317
-1.74264
-1.73213
-1.72165
-1.71118
-1.7007
-1.69016
-1.68035
-1.6999
-1.83542
-1.83307
-1.81999
-1.81355
-1.80466
-1.79452
-1.78421
-1.77378
-1.76327
-1.75275
-1.74224
-1.73175
-1.72127
-1.71079
-1.70028
-1.68959
-1.67918
-1.73115
-1.8272
-1.82968
-1.81842
-1.8123
-1.8038
-1.79383
-1.78363
-1.77329
-1.76285
-1.75237
-1.7419
-1.73144
-1.72098
-1.71051
-1.70001
-1.68931
-1.67881
-1.75583
-1.82112
-1.82646
-1.81708
-1.81106
-1.80293
-1.79316
-1.78308
-1.77284
-1.76248
-1.75207
-1.74165
-1.73123
-1.72083
-1.71041
-1.69997
-1.68941
-1.67915
-1.77643
-1.81793
-1.82351
-1.81584
-1.80982
-1.802
-1.79247
-1.78253
-1.77241
-1.76216
-1.75183
-1.7415
-1.73117
-1.72085
-1.71054
-1.70026
-1.68996
-1.68014
-1.79368
-1.81731
-1.82112
-1.81474
-1.80864
-1.80101
-1.79175
-1.78197
-1.772
-1.76188
-1.75169
-1.74147
-1.73127
-1.7211
-1.71097
-1.70093
-1.69102
-1.68175
-1.80797
-1.81865
-1.81949
-1.81385
-1.8076
-1.80003
-1.791
-1.78141
-1.77161
-1.76166
-1.75163
-1.74159
-1.73157
-1.72161
-1.71175
-1.70206
-1.69261
-1.68392
-1.81973
-1.82133
-1.81871
-1.81323
-1.8068
-1.79914
-1.79027
-1.78086
-1.77125
-1.7615
-1.75168
-1.74186
-1.73209
-1.72241
-1.71289
-1.70362
-1.69469
-1.68659
-1.82943
-1.82482
-1.81876
-1.81293
-1.80628
-1.79843
-1.78964
-1.78039
-1.77096
-1.76143
-1.75184
-1.74228
-1.73281
-1.72348
-1.71436
-1.70556
-1.69718
-1.68963
-1.83746
-1.8287
-1.8195
-1.81295
-1.80604
-1.79797
-1.78916
-1.78004
-1.77078
-1.76146
-1.75213
-1.74286
-1.73372
-1.72477
-1.71609
-1.70778
-1.69994
-1.69289
-1.84363
-1.83236
-1.82068
-1.81326
-1.80606
-1.79777
-1.78889
-1.77983
-1.77071
-1.76158
-1.75249
-1.7435
-1.73468
-1.7261
-1.71782
-1.70995
-1.70259
-1.69593
-1.84881
-1.83594
-1.82221
-1.81377
-1.80626
-1.7978
-1.78883
-1.7798
-1.77081
-1.76186
-1.75299
-1.74427
-1.73576
-1.72753
-1.71964
-1.71218
-1.70524
-1.69895
-1.85376
-1.83979
-1.82425
-1.8146
-1.80671
-1.79808
-1.789
-1.77998
-1.7711
-1.76234
-1.75372
-1.7453
-1.73713
-1.72928
-1.7218
-1.71476
-1.70823
-1.70229
-1.85841
-1.84372
-1.8267
-1.81581
-1.80745
-1.79866
-1.78946
-1.78042
-1.77166
-1.7631
-1.75474
-1.74662
-1.7388
-1.73134
-1.72426
-1.71763
-1.71149
-1.70588
-1.86261
-1.84749
-1.8294
-1.81738
-1.80852
-1.79958
-1.79029
-1.78124
-1.77258
-1.76422
-1.75612
-1.74831
-1.74083
-1.73373
-1.72703
-1.72077
-1.71497
-1.70965
-1.86616
-1.85081
-1.83204
-1.81918
-1.80989
-1.80084
-1.79152
-1.78249
-1.77394
-1.76578
-1.75794
-1.75042
-1.74326
-1.73648
-1.73011
-1.72416
-1.71863
-1.71354
-1.86868
-1.85327
-1.83421
-1.82093
-1.81142
-1.80238
-1.79314
-1.7842
-1.7758
-1.76785
-1.76025
-1.753
-1.74612
-1.73962
-1.73351
-1.72778
-1.72246
-1.71752
-1.86946
-1.85416
-1.83527
-1.82216
-1.81285
-1.80403
-1.79502
-1.78631
-1.77814
-1.77044
-1.76309
-1.75608
-1.74942
-1.74313
-1.7372
-1.73162
-1.7264
-1.72153
-1.8674
-1.85246
-1.83442
-1.82234
-1.81376
-1.80539
-1.79675
-1.78838
-1.7805
-1.77303
-1.76586
-1.75901
-1.75248
-1.74629
-1.74044
-1.7349
-1.72969
-1.7248
-1.86347
-1.84919
-1.83261
-1.82203
-1.81434
-1.80646
-1.79822
-1.7902
-1.78257
-1.77526
-1.76822
-1.76145
-1.75498
-1.74883
-1.74298
-1.73743
-1.73218
-1.72723
-1.85745
-1.84453
-1.83041
-1.82181
-1.81504
-1.80764
-1.79982
-1.79213
-1.7847
-1.77749
-1.7705
-1.76376
-1.7573
-1.75112
-1.74523
-1.73962
-1.7343
-1.72925
-1.84907
-1.83881
-1.82851
-1.8221
-1.81605
-1.80908
-1.80166
-1.79422
-1.78688
-1.7797
-1.7727
-1.76594
-1.75942
-1.75318
-1.7472
-1.7415
-1.73608
-1.7309
-1.83773
-1.83255
-1.8277
-1.82319
-1.81745
-1.81086
-1.80377
-1.79642
-1.78905
-1.78181
-1.77474
-1.76789
-1.76128
-1.75493
-1.74886
-1.74305
-1.73752
-1.73222
-1.82258
-1.82667
-1.82864
-1.82505
-1.81923
-1.81295
-1.80598
-1.79853
-1.79103
-1.78365
-1.77646
-1.76948
-1.76275
-1.7563
-1.75012
-1.74422
-1.73859
-1.7332
-1.80278
-1.82274
-1.83164
-1.82737
-1.82127
-1.81514
-1.80801
-1.80031
-1.79261
-1.78508
-1.77774
-1.77063
-1.7638
-1.75725
-1.751
-1.74503
-1.73934
-1.73389
-1.77722
-1.82306
-1.83656
-1.82979
-1.82337
-1.81713
-1.80963
-1.80165
-1.79377
-1.78608
-1.77861
-1.77141
-1.76451
-1.7579
-1.75159
-1.74558
-1.73986
-1.73439
-1.74249
-1.82859
-1.8427
-1.83228
-1.82541
-1.81877
-1.81085
-1.80264
-1.79461
-1.7868
-1.77924
-1.77198
-1.76502
-1.75836
-1.75202
-1.74598
-1.74024
-1.73476
-1.69348
-1.83627
-1.84885
-1.83497
-1.82732
-1.82008
-1.81183
-1.80346
-1.7953
-1.78739
-1.77976
-1.77243
-1.76543
-1.75874
-1.75236
-1.7463
-1.74054
-1.73505
-1.64111
-1.84164
-1.85322
-1.83712
-1.82873
-1.82102
-1.81256
-1.80406
-1.7958
-1.78781
-1.78013
-1.77276
-1.76572
-1.759
-1.7526
-1.74652
-1.74074
-1.73524
-1.63626
-1.63614
-1.6361
-1.63623
-1.63653
-1.63701
-1.63765
-1.63846
-1.63942
-1.64054
-1.6418
-1.64321
-1.64477
-1.64647
-1.64831
-1.65031
-1.65245
-1.65475
-1.6572
-1.65981
-1.66259
-1.66554
-1.66867
-1.67197
-1.67545
-1.67911
-1.68292
-1.68688
-1.69095
-1.69511
-1.69931
-1.7035
-1.70759
-1.71153
-1.7152
-1.71852
-1.72136
-1.72362
-1.72517
-1.72588
-1.72564
-1.72433
-1.72184
-1.71809
-1.71298
-1.70646
-1.69848
-1.68902
-1.67807
-1.66567
-1.65186
-1.63672
-1.62033
-1.60281
-1.5843
-1.56495
-1.54495
-1.52448
-1.50375
-1.48295
-1.46228
-1.44193
-1.42208
-1.40288
-1.38447
-1.36696
-1.35042
-1.33491
-1.32046
-1.30707
-1.29472
-1.28338
-1.27299
-1.26349
-1.25481
-1.24688
-1.23962
-1.23295
-1.2268
-1.2211
-1.21577
-1.21077
-1.20603
-1.20149
-1.19713
-1.19289
-1.18873
-1.18464
-1.18058
-1.17652
-1.17245
-1.16835
-1.1642
-1.16
-1.15573
-1.15138
-1.14695
-1.14242
-1.13781
-1.13309
-1.12828
-1.12336
-1.11833
-1.1132
-1.10796
-1.10261
-1.09716
-1.09159
-1.08593
-1.08015
-1.07427
-1.06829
-1.06221
-1.05602
-1.04974
-1.04336
-1.03689
-1.03032
-1.02366
-1.01692
-1.01009
-1.00317
-0.996168
-0.989086
-0.981926
-0.974689
-0.967375
-0.959988
-0.952528
-0.944997
-0.937395
-0.929724
-0.921985
-0.914179
-0.906306
-0.898367
-0.890363
-0.882293
-0.874159
-0.865959
-0.857695
-0.849365
-0.84097
-0.832511
-0.823985
-0.815394
-0.806737
-0.798013
-0.789222
-0.780363
-0.771437
-0.762442
-0.753378
-0.744244
-0.735041
-0.725767
-0.716421
-0.707005
-0.697515
-0.687954
-0.678319
-0.66861
-0.658827
-0.648969
-0.639036
-0.629029
-0.618945
-0.608787
-0.598554
-0.588245
-0.577863
-0.567408
-0.556883
-0.546289
-0.535633
-0.52492
-0.514159
-0.503375
-0.492539
-0.482013
-1.63622
-1.63609
-1.63606
-1.63621
-1.63652
-1.63699
-1.63762
-1.6384
-1.63933
-1.6404
-1.64161
-1.64296
-1.64445
-1.64608
-1.64785
-1.64975
-1.65179
-1.65398
-1.65632
-1.6588
-1.66145
-1.66426
-1.66724
-1.67039
-1.67372
-1.67722
-1.68088
-1.6847
-1.68865
-1.69271
-1.69684
-1.70099
-1.70509
-1.70908
-1.71286
-1.71635
-1.71941
-1.72194
-1.72381
-1.72489
-1.72504
-1.72415
-1.72208
-1.71875
-1.71405
-1.70791
-1.70029
-1.69115
-1.6805
-1.66834
-1.65473
-1.63972
-1.62339
-1.60588
-1.58733
-1.56793
-1.54783
-1.52725
-1.50638
-1.48543
-1.4646
-1.44409
-1.42407
-1.40471
-1.38615
-1.36848
-1.35181
-1.33617
-1.32161
-1.30812
-1.29568
-1.28425
-1.27378
-1.26422
-1.25548
-1.24749
-1.24017
-1.23345
-1.22725
-1.2215
-1.21613
-1.21109
-1.2063
-1.20174
-1.19734
-1.19306
-1.18888
-1.18476
-1.18067
-1.1766
-1.17251
-1.16839
-1.16423
-1.16001
-1.15572
-1.15137
-1.14692
-1.14239
-1.13777
-1.13305
-1.12823
-1.12331
-1.11828
-1.11315
-1.10791
-1.10256
-1.09711
-1.09155
-1.08588
-1.08011
-1.07423
-1.06825
-1.06217
-1.05599
-1.04971
-1.04333
-1.03686
-1.03029
-1.02364
-1.01689
-1.01006
-1.00315
-0.996148
-0.989069
-0.98191
-0.974674
-0.967362
-0.959975
-0.952516
-0.944986
-0.937385
-0.929715
-0.921977
-0.914171
-0.906299
-0.898361
-0.890357
-0.882288
-0.874153
-0.865954
-0.85769
-0.849361
-0.840967
-0.832507
-0.823982
-0.815391
-0.806734
-0.79801
-0.789219
-0.780361
-0.771434
-0.762439
-0.753375
-0.744242
-0.735038
-0.725764
-0.716419
-0.707002
-0.697513
-0.687951
-0.678316
-0.668607
-0.658824
-0.648966
-0.639033
-0.629025
-0.618941
-0.608782
-0.598548
-0.588239
-0.577855
-0.567399
-0.556872
-0.546278
-0.535619
-0.524904
-0.514138
-0.50335
-0.492495
-0.481973
-1.63545
-1.63537
-1.6354
-1.63558
-1.63593
-1.63642
-1.63705
-1.63782
-1.63873
-1.63977
-1.64094
-1.64224
-1.64368
-1.64524
-1.64693
-1.64876
-1.65072
-1.65281
-1.65505
-1.65744
-1.65999
-1.66272
-1.66563
-1.66873
-1.67204
-1.67556
-1.67929
-1.68324
-1.68739
-1.69172
-1.6962
-1.70077
-1.70537
-1.70992
-1.71432
-1.71846
-1.72221
-1.72542
-1.72796
-1.72967
-1.73041
-1.73005
-1.72845
-1.72549
-1.7211
-1.71519
-1.70772
-1.69865
-1.688
-1.67576
-1.66198
-1.64675
-1.63019
-1.61241
-1.59356
-1.57382
-1.55336
-1.53238
-1.5111
-1.48973
-1.46848
-1.44754
-1.42712
-1.40738
-1.38846
-1.37047
-1.35351
-1.33762
-1.32284
-1.30916
-1.29657
-1.28502
-1.27445
-1.2648
-1.256
-1.24795
-1.24059
-1.23383
-1.2276
-1.22182
-1.21643
-1.21136
-1.20655
-1.20196
-1.19754
-1.19325
-1.18905
-1.18491
-1.18081
-1.17671
-1.17261
-1.16847
-1.1643
-1.16007
-1.15577
-1.1514
-1.14695
-1.14241
-1.13778
-1.13306
-1.12823
-1.12331
-1.11827
-1.11314
-1.1079
-1.10255
-1.09709
-1.09153
-1.08586
-1.08009
-1.07421
-1.06823
-1.06215
-1.05597
-1.04969
-1.04331
-1.03684
-1.03028
-1.02362
-1.01688
-1.01005
-1.00313
-0.996137
-0.989058
-0.9819
-0.974664
-0.967352
-0.959967
-0.952508
-0.944978
-0.937378
-0.929708
-0.92197
-0.914165
-0.906293
-0.898355
-0.890352
-0.882283
-0.874149
-0.86595
-0.857686
-0.849357
-0.840963
-0.832504
-0.823979
-0.815388
-0.806731
-0.798007
-0.789216
-0.780358
-0.771432
-0.762437
-0.753373
-0.744239
-0.735036
-0.725762
-0.716417
-0.707
-0.69751
-0.687948
-0.678313
-0.668604
-0.65882
-0.648962
-0.639029
-0.629021
-0.618936
-0.608777
-0.598541
-0.588231
-0.577847
-0.567389
-0.55686
-0.546262
-0.5356
-0.52488
-0.514108
-0.503311
-0.492428
-0.481906
-1.63389
-1.63391
-1.63404
-1.6343
-1.63469
-1.6352
-1.63584
-1.63661
-1.63749
-1.63851
-1.63965
-1.64091
-1.6423
-1.64382
-1.64547
-1.64726
-1.64918
-1.65126
-1.65349
-1.65591
-1.65853
-1.66136
-1.66445
-1.6678
-1.67144
-1.67539
-1.67966
-1.68426
-1.68916
-1.69435
-1.69976
-1.70534
-1.71099
-1.7166
-1.72206
-1.7272
-1.73188
-1.73594
-1.73922
-1.74155
-1.74278
-1.74277
-1.74141
-1.73858
-1.73421
-1.72822
-1.72059
-1.71129
-1.70033
-1.68773
-1.67357
-1.65793
-1.64091
-1.62263
-1.60325
-1.58293
-1.56186
-1.54024
-1.51829
-1.49625
-1.47431
-1.45272
-1.43166
-1.41131
-1.39183
-1.37333
-1.35592
-1.33964
-1.32452
-1.31056
-1.29773
-1.28599
-1.27527
-1.26551
-1.25661
-1.2485
-1.24108
-1.23428
-1.22801
-1.2222
-1.21678
-1.21169
-1.20687
-1.20227
-1.19783
-1.19353
-1.18931
-1.18516
-1.18104
-1.17693
-1.17281
-1.16866
-1.16447
-1.16023
-1.15592
-1.15154
-1.14707
-1.14252
-1.13788
-1.13315
-1.12831
-1.12338
-1.11834
-1.11319
-1.10794
-1.10259
-1.09713
-1.09156
-1.08589
-1.08011
-1.07423
-1.06825
-1.06217
-1.05598
-1.0497
-1.04332
-1.03685
-1.03028
-1.02363
-1.01688
-1.01005
-1.00314
-0.996136
-0.989056
-0.981898
-0.974661
-0.967349
-0.959963
-0.952504
-0.944974
-0.937373
-0.929704
-0.921966
-0.914161
-0.906289
-0.898351
-0.890347
-0.882278
-0.874144
-0.865946
-0.857682
-0.849353
-0.840959
-0.8325
-0.823976
-0.815385
-0.806728
-0.798004
-0.789214
-0.780355
-0.771429
-0.762434
-0.75337
-0.744237
-0.735034
-0.72576
-0.716414
-0.706997
-0.697508
-0.687946
-0.678311
-0.668601
-0.658818
-0.648959
-0.639026
-0.629017
-0.618932
-0.608772
-0.598535
-0.588224
-0.577838
-0.567378
-0.556846
-0.546245
-0.535578
-0.524852
-0.514069
-0.503261
-0.492346
-0.481811
-1.6317
-1.63185
-1.6321
-1.63244
-1.63287
-1.6334
-1.63403
-1.63478
-1.63564
-1.63663
-1.63774
-1.63898
-1.64035
-1.64187
-1.64353
-1.64535
-1.64734
-1.64953
-1.65194
-1.6546
-1.65754
-1.66081
-1.66443
-1.66844
-1.67287
-1.67773
-1.68305
-1.68879
-1.69492
-1.70141
-1.70815
-1.71505
-1.72199
-1.72883
-1.7354
-1.74155
-1.7471
-1.75187
-1.75571
-1.75846
-1.75997
-1.76011
-1.75878
-1.75589
-1.75136
-1.74515
-1.73723
-1.72759
-1.71624
-1.70324
-1.68864
-1.67251
-1.65495
-1.63609
-1.61606
-1.59505
-1.57323
-1.55083
-1.52806
-1.50515
-1.48236
-1.45991
-1.43802
-1.41689
-1.39667
-1.3775
-1.35949
-1.34268
-1.3271
-1.31276
-1.29961
-1.2876
-1.27667
-1.26673
-1.2577
-1.24947
-1.24196
-1.23508
-1.22876
-1.2229
-1.21744
-1.21232
-1.20746
-1.20283
-1.19837
-1.19403
-1.18979
-1.18561
-1.18146
-1.17733
-1.17318
-1.16901
-1.1648
-1.16053
-1.1562
-1.1518
-1.14731
-1.14274
-1.13808
-1.13333
-1.12848
-1.12353
-1.11847
-1.11332
-1.10805
-1.10269
-1.09722
-1.09164
-1.08596
-1.08017
-1.07429
-1.0683
-1.06221
-1.05602
-1.04973
-1.04335
-1.03687
-1.0303
-1.02364
-1.01689
-1.01006
-1.00314
-0.99614
-0.989059
-0.981898
-0.974661
-0.967348
-0.959961
-0.952501
-0.94497
-0.937369
-0.929699
-0.921961
-0.914155
-0.906283
-0.898345
-0.890342
-0.882273
-0.874139
-0.865941
-0.857677
-0.849349
-0.840955
-0.832496
-0.823972
-0.815381
-0.806725
-0.798001
-0.789211
-0.780353
-0.771426
-0.762432
-0.753368
-0.744235
-0.735032
-0.725758
-0.716412
-0.706995
-0.697506
-0.687944
-0.678309
-0.668599
-0.658815
-0.648957
-0.639023
-0.629014
-0.618928
-0.608767
-0.59853
-0.588217
-0.57783
-0.567368
-0.556833
-0.546228
-0.535556
-0.524823
-0.514028
-0.503204
-0.492262
-0.481688
-1.62913
-1.62942
-1.62978
-1.63017
-1.63062
-1.63114
-1.63176
-1.63248
-1.63332
-1.63428
-1.63538
-1.63662
-1.63803
-1.63961
-1.64137
-1.64336
-1.64558
-1.64808
-1.6509
-1.65409
-1.65768
-1.66172
-1.66627
-1.67134
-1.67696
-1.68313
-1.68984
-1.69704
-1.70466
-1.71263
-1.72082
-1.72909
-1.73731
-1.74529
-1.75288
-1.75988
-1.76614
-1.77148
-1.77573
-1.77875
-1.78042
-1.7806
-1.77922
-1.77619
-1.77145
-1.76497
-1.75673
-1.74674
-1.73502
-1.7216
-1.70653
-1.6899
-1.67179
-1.65232
-1.63162
-1.60986
-1.58723
-1.56394
-1.54022
-1.51634
-1.49254
-1.46907
-1.44619
-1.42411
-1.403
-1.38302
-1.36427
-1.34682
-1.33068
-1.31586
-1.30231
-1.28997
-1.27877
-1.2686
-1.25938
-1.25099
-1.24336
-1.23638
-1.22996
-1.22403
-1.21851
-1.21332
-1.20842
-1.20373
-1.19922
-1.19484
-1.19055
-1.18633
-1.18214
-1.17796
-1.17377
-1.16956
-1.16531
-1.16101
-1.15664
-1.15221
-1.14769
-1.14309
-1.1384
-1.13362
-1.12874
-1.12377
-1.11869
-1.11351
-1.10823
-1.10284
-1.09735
-1.09176
-1.08607
-1.08027
-1.07437
-1.06837
-1.06227
-1.05607
-1.04977
-1.04338
-1.0369
-1.03032
-1.02366
-1.01691
-1.01007
-1.00315
-0.996144
-0.98906
-0.981898
-0.974658
-0.967344
-0.959956
-0.952495
-0.944963
-0.937362
-0.929691
-0.921953
-0.914148
-0.906276
-0.898338
-0.890335
-0.882266
-0.874133
-0.865934
-0.857671
-0.849343
-0.84095
-0.832491
-0.823967
-0.815377
-0.806721
-0.797997
-0.789207
-0.780349
-0.771424
-0.762429
-0.753366
-0.744233
-0.735029
-0.725756
-0.716411
-0.706994
-0.697505
-0.687943
-0.678307
-0.668598
-0.658814
-0.648955
-0.639021
-0.629011
-0.618926
-0.608764
-0.598526
-0.588213
-0.577823
-0.56736
-0.556822
-0.546214
-0.535536
-0.524795
-0.513989
-0.503149
-0.492182
-0.481551
-1.62651
-1.62691
-1.62736
-1.62779
-1.62823
-1.62874
-1.62932
-1.63001
-1.63083
-1.63179
-1.63292
-1.63422
-1.63573
-1.63747
-1.63946
-1.64176
-1.6444
-1.64743
-1.65091
-1.65488
-1.65941
-1.66453
-1.67028
-1.67668
-1.68372
-1.69139
-1.69963
-1.70837
-1.71751
-1.72693
-1.7365
-1.74605
-1.75542
-1.76443
-1.77289
-1.78064
-1.7875
-1.7933
-1.79789
-1.80112
-1.80288
-1.80306
-1.80159
-1.79839
-1.79343
-1.78668
-1.77813
-1.7678
-1.75572
-1.74191
-1.72644
-1.70935
-1.69074
-1.67071
-1.64937
-1.62688
-1.60342
-1.57921
-1.55449
-1.52954
-1.50463
-1.48003
-1.45603
-1.43287
-1.41074
-1.38982
-1.37023
-1.35203
-1.33524
-1.31986
-1.30584
-1.29311
-1.28158
-1.27113
-1.26167
-1.2531
-1.24531
-1.23819
-1.23166
-1.22562
-1.22001
-1.21474
-1.20975
-1.20499
-1.20041
-1.19596
-1.19161
-1.18732
-1.18308
-1.17884
-1.1746
-1.17034
-1.16603
-1.16168
-1.15727
-1.15278
-1.14822
-1.14358
-1.13885
-1.13403
-1.12911
-1.1241
-1.11899
-1.11378
-1.10847
-1.10306
-1.09755
-1.09193
-1.08621
-1.0804
-1.07448
-1.06846
-1.06235
-1.05613
-1.04983
-1.04343
-1.03693
-1.03035
-1.02368
-1.01692
-1.01008
-1.00315
-0.996146
-0.989059
-0.981894
-0.974652
-0.967336
-0.959946
-0.952485
-0.944953
-0.937351
-0.92968
-0.921942
-0.914136
-0.906265
-0.898327
-0.890324
-0.882256
-0.874123
-0.865926
-0.857663
-0.849335
-0.840943
-0.832485
-0.823961
-0.815371
-0.806715
-0.797993
-0.789203
-0.780346
-0.77142
-0.762426
-0.753363
-0.74423
-0.735027
-0.725754
-0.716409
-0.706992
-0.697503
-0.687941
-0.678306
-0.668597
-0.658813
-0.648954
-0.63902
-0.629011
-0.618925
-0.608763
-0.598525
-0.58821
-0.57782
-0.567354
-0.556815
-0.546203
-0.535521
-0.524772
-0.513956
-0.503099
-0.492113
-0.481413
-1.62423
-1.62471
-1.62522
-1.62566
-1.62608
-1.62656
-1.62712
-1.62779
-1.62862
-1.62962
-1.63081
-1.63224
-1.63394
-1.63594
-1.63829
-1.64105
-1.64426
-1.648
-1.65231
-1.65726
-1.66289
-1.66924
-1.67632
-1.68412
-1.69263
-1.70179
-1.71152
-1.72172
-1.73227
-1.74303
-1.75384
-1.76454
-1.77493
-1.78485
-1.7941
-1.80251
-1.80989
-1.81609
-1.82095
-1.82434
-1.82615
-1.82629
-1.82468
-1.82128
-1.81607
-1.80903
-1.80018
-1.78954
-1.77714
-1.76302
-1.74721
-1.72978
-1.71079
-1.6903
-1.66843
-1.64531
-1.62111
-1.59604
-1.57034
-1.54431
-1.51825
-1.49247
-1.46727
-1.44294
-1.4197
-1.39776
-1.37723
-1.3582
-1.3407
-1.3247
-1.31016
-1.29698
-1.28506
-1.2743
-1.26458
-1.25578
-1.24779
-1.24051
-1.23383
-1.22766
-1.22193
-1.21655
-1.21146
-1.2066
-1.20193
-1.19739
-1.19296
-1.1886
-1.18427
-1.17996
-1.17565
-1.17132
-1.16695
-1.16254
-1.15806
-1.15352
-1.1489
-1.14421
-1.13943
-1.13456
-1.12959
-1.12454
-1.11939
-1.11414
-1.10879
-1.10334
-1.0978
-1.09215
-1.08641
-1.08056
-1.07462
-1.06858
-1.06245
-1.05622
-1.0499
-1.04348
-1.03698
-1.03039
-1.02371
-1.01694
-1.01009
-1.00316
-0.996146
-0.989055
-0.981886
-0.974642
-0.967324
-0.959933
-0.952471
-0.944938
-0.937335
-0.929665
-0.921926
-0.914121
-0.90625
-0.898313
-0.890311
-0.882244
-0.874112
-0.865915
-0.857653
-0.849326
-0.840934
-0.832477
-0.823954
-0.815365
-0.806709
-0.797987
-0.789198
-0.780341
-0.771416
-0.762422
-0.75336
-0.744227
-0.735025
-0.725751
-0.716407
-0.706991
-0.697502
-0.68794
-0.678305
-0.668597
-0.658813
-0.648955
-0.639021
-0.629011
-0.618925
-0.608763
-0.598525
-0.58821
-0.577819
-0.567353
-0.556811
-0.546197
-0.53551
-0.524755
-0.51393
-0.503058
-0.492057
-0.481286
-1.62264
-1.62317
-1.6237
-1.62412
-1.62453
-1.62498
-1.62553
-1.62622
-1.62709
-1.62816
-1.62949
-1.63111
-1.63307
-1.63542
-1.63822
-1.64153
-1.64542
-1.64995
-1.65518
-1.66116
-1.66793
-1.6755
-1.68387
-1.69302
-1.70289
-1.71341
-1.72449
-1.73599
-1.74779
-1.75973
-1.77164
-1.78335
-1.79465
-1.80537
-1.81531
-1.82428
-1.83211
-1.83862
-1.84368
-1.84715
-1.84893
-1.84895
-1.84714
-1.84349
-1.83798
-1.83064
-1.82149
-1.81056
-1.7979
-1.78355
-1.76754
-1.7499
-1.73069
-1.70994
-1.68773
-1.66417
-1.63939
-1.6136
-1.58704
-1.56001
-1.53284
-1.50589
-1.47949
-1.45397
-1.42959
-1.40658
-1.38508
-1.36519
-1.34693
-1.33028
-1.31517
-1.3015
-1.28917
-1.27807
-1.26805
-1.259
-1.25079
-1.24331
-1.23646
-1.23013
-1.22425
-1.21874
-1.21352
-1.20855
-1.20376
-1.19912
-1.19459
-1.19013
-1.18571
-1.18132
-1.17692
-1.17251
-1.16806
-1.16357
-1.15902
-1.15441
-1.14973
-1.14497
-1.14013
-1.1352
-1.13018
-1.12507
-1.11987
-1.11457
-1.10918
-1.10369
-1.09811
-1.09242
-1.08664
-1.08077
-1.0748
-1.06874
-1.06258
-1.05633
-1.04999
-1.04355
-1.03704
-1.03043
-1.02374
-1.01696
-1.0101
-1.00316
-0.996146
-0.98905
-0.981877
-0.97463
-0.96731
-0.959917
-0.952453
-0.944919
-0.937317
-0.929646
-0.921908
-0.914103
-0.906232
-0.898296
-0.890295
-0.882228
-0.874097
-0.865901
-0.85764
-0.849314
-0.840923
-0.832467
-0.823945
-0.815356
-0.806702
-0.79798
-0.789192
-0.780335
-0.771411
-0.762418
-0.753356
-0.744224
-0.735022
-0.725749
-0.716405
-0.706989
-0.697501
-0.68794
-0.678305
-0.668597
-0.658814
-0.648955
-0.639022
-0.629013
-0.618927
-0.608766
-0.598527
-0.588212
-0.577821
-0.567354
-0.556812
-0.546195
-0.535505
-0.524745
-0.513912
-0.503026
-0.492015
-0.481177
-1.62201
-1.62253
-1.62305
-1.62346
-1.62384
-1.62429
-1.62485
-1.62559
-1.62653
-1.62772
-1.62922
-1.63108
-1.63334
-1.63609
-1.63937
-1.64327
-1.64785
-1.65317
-1.65929
-1.66624
-1.67406
-1.68274
-1.69226
-1.70258
-1.71363
-1.72532
-1.73754
-1.75016
-1.76303
-1.77598
-1.78883
-1.80139
-1.81347
-1.82486
-1.83537
-1.84479
-1.85295
-1.85968
-1.86482
-1.86827
-1.86993
-1.86974
-1.86767
-1.8637
-1.85786
-1.85019
-1.84074
-1.82957
-1.81671
-1.80222
-1.78612
-1.76844
-1.7492
-1.72841
-1.7061
-1.68233
-1.65722
-1.63093
-1.60371
-1.57585
-1.54772
-1.5197
-1.49217
-1.46551
-1.44003
-1.41598
-1.39352
-1.37278
-1.35376
-1.33643
-1.32075
-1.30659
-1.29384
-1.28237
-1.27204
-1.26271
-1.25426
-1.24656
-1.23951
-1.233
-1.22695
-1.22128
-1.21592
-1.21081
-1.20589
-1.20113
-1.19648
-1.1919
-1.18738
-1.18288
-1.17839
-1.17388
-1.16934
-1.16476
-1.16013
-1.15544
-1.15068
-1.14585
-1.14094
-1.13595
-1.13086
-1.1257
-1.12044
-1.11509
-1.10964
-1.1041
-1.09847
-1.09275
-1.08693
-1.08102
-1.07502
-1.06892
-1.06274
-1.05646
-1.0501
-1.04364
-1.03711
-1.03048
-1.02378
-1.01699
-1.01012
-1.00317
-0.996148
-0.989046
-0.981869
-0.974618
-0.967294
-0.959899
-0.952434
-0.944899
-0.937296
-0.929625
-0.921887
-0.914082
-0.906212
-0.898277
-0.890276
-0.882211
-0.874081
-0.865886
-0.857626
-0.849301
-0.840911
-0.832455
-0.823934
-0.815347
-0.806693
-0.797973
-0.789185
-0.780329
-0.771405
-0.762413
-0.753351
-0.74422
-0.735019
-0.725746
-0.716403
-0.706988
-0.6975
-0.687939
-0.678305
-0.668597
-0.658814
-0.648957
-0.639024
-0.629015
-0.61893
-0.608769
-0.598531
-0.588216
-0.577825
-0.567358
-0.556815
-0.546197
-0.535504
-0.52474
-0.5139
-0.503003
-0.491986
-0.481087
-1.62244
-1.62293
-1.6234
-1.62377
-1.62415
-1.6246
-1.6252
-1.626
-1.62704
-1.62838
-1.63007
-1.63218
-1.63476
-1.63789
-1.64164
-1.64609
-1.65129
-1.65731
-1.6642
-1.67198
-1.68068
-1.69027
-1.70074
-1.71201
-1.72401
-1.73665
-1.7498
-1.76331
-1.77704
-1.7908
-1.80441
-1.81767
-1.83036
-1.84228
-1.85321
-1.86295
-1.87131
-1.87813
-1.88326
-1.88659
-1.88806
-1.8876
-1.88521
-1.8809
-1.87472
-1.86673
-1.85701
-1.84561
-1.83261
-1.81806
-1.80199
-1.78441
-1.76532
-1.74469
-1.72251
-1.6988
-1.67362
-1.64709
-1.61945
-1.591
-1.56211
-1.5332
-1.50471
-1.47704
-1.45057
-1.42557
-1.40224
-1.38069
-1.36095
-1.343
-1.32676
-1.31213
-1.29897
-1.28713
-1.27648
-1.26686
-1.25815
-1.25022
-1.24295
-1.23624
-1.23
-1.22416
-1.21863
-1.21336
-1.20829
-1.20339
-1.1986
-1.1939
-1.18925
-1.18464
-1.18003
-1.17542
-1.17078
-1.16611
-1.16138
-1.1566
-1.15176
-1.14685
-1.14186
-1.13679
-1.13164
-1.1264
-1.12108
-1.11567
-1.11017
-1.10458
-1.0989
-1.09313
-1.08726
-1.08131
-1.07527
-1.06914
-1.06292
-1.05662
-1.05023
-1.04375
-1.03719
-1.03055
-1.02383
-1.01703
-1.01015
-1.00319
-0.996156
-0.989047
-0.981863
-0.974608
-0.96728
-0.959882
-0.952414
-0.944878
-0.937273
-0.929602
-0.921864
-0.91406
-0.90619
-0.898256
-0.890256
-0.882192
-0.874062
-0.865869
-0.85761
-0.849286
-0.840897
-0.832443
-0.823923
-0.815336
-0.806684
-0.797964
-0.789177
-0.780322
-0.771399
-0.762408
-0.753347
-0.744216
-0.735015
-0.725744
-0.716401
-0.706986
-0.697499
-0.687939
-0.678305
-0.668598
-0.658816
-0.648959
-0.639026
-0.629018
-0.618934
-0.608773
-0.598536
-0.588222
-0.577831
-0.567364
-0.55682
-0.546201
-0.535507
-0.524739
-0.513895
-0.502988
-0.491967
-0.481018
-1.6239
-1.6243
-1.6247
-1.62503
-1.6254
-1.62587
-1.62652
-1.62739
-1.62854
-1.63002
-1.6319
-1.63424
-1.6371
-1.64057
-1.64472
-1.64961
-1.65532
-1.6619
-1.66938
-1.67781
-1.68717
-1.69745
-1.70861
-1.72059
-1.73329
-1.74663
-1.76046
-1.77464
-1.789
-1.80336
-1.81753
-1.83128
-1.84441
-1.85668
-1.86788
-1.87781
-1.88626
-1.89308
-1.89812
-1.9013
-1.90254
-1.90181
-1.89911
-1.89448
-1.888
-1.87973
-1.86976
-1.85819
-1.84509
-1.83055
-1.81459
-1.79722
-1.7784
-1.75809
-1.73623
-1.71279
-1.68777
-1.66126
-1.63346
-1.60466
-1.57526
-1.54571
-1.51649
-1.48804
-1.46076
-1.43498
-1.4109
-1.38866
-1.36829
-1.34979
-1.33306
-1.31799
-1.30444
-1.29226
-1.28129
-1.27138
-1.26241
-1.25423
-1.24673
-1.23981
-1.23336
-1.22732
-1.22161
-1.21617
-1.21094
-1.20588
-1.20095
-1.1961
-1.19132
-1.18658
-1.18185
-1.17712
-1.17237
-1.16759
-1.16276
-1.15789
-1.15295
-1.14795
-1.14287
-1.13772
-1.1325
-1.12719
-1.1218
-1.11632
-1.11076
-1.10511
-1.09937
-1.09355
-1.08764
-1.08164
-1.07556
-1.06939
-1.06314
-1.0568
-1.05038
-1.04388
-1.0373
-1.03064
-1.0239
-1.01708
-1.01018
-1.00321
-0.99617
-0.989052
-0.981862
-0.9746
-0.967268
-0.959866
-0.952396
-0.944857
-0.937252
-0.929579
-0.921841
-0.914037
-0.906168
-0.898234
-0.890235
-0.882171
-0.874043
-0.865851
-0.857593
-0.84927
-0.840883
-0.832429
-0.82391
-0.815325
-0.806673
-0.797955
-0.789168
-0.780315
-0.771392
-0.762402
-0.753341
-0.744211
-0.735011
-0.72574
-0.716398
-0.706984
-0.697497
-0.687938
-0.678305
-0.668598
-0.658817
-0.648961
-0.639029
-0.629022
-0.618938
-0.608778
-0.598541
-0.588228
-0.577838
-0.567371
-0.556827
-0.546207
-0.535512
-0.524741
-0.513894
-0.502979
-0.491956
-0.480966
-1.62618
-1.62648
-1.62678
-1.62707
-1.62742
-1.62791
-1.62859
-1.62953
-1.63078
-1.63239
-1.63442
-1.63695
-1.64003
-1.64376
-1.64819
-1.6534
-1.65946
-1.66642
-1.6743
-1.68315
-1.69294
-1.70366
-1.71526
-1.72769
-1.74084
-1.75461
-1.76887
-1.78346
-1.79822
-1.81295
-1.82746
-1.8415
-1.85488
-1.86734
-1.87867
-1.88866
-1.89712
-1.90388
-1.90882
-1.91183
-1.91287
-1.91192
-1.90898
-1.90411
-1.89739
-1.88891
-1.87877
-1.86709
-1.85397
-1.83949
-1.82371
-1.80661
-1.78815
-1.76826
-1.74684
-1.7238
-1.69913
-1.67285
-1.64514
-1.61628
-1.58666
-1.55674
-1.52704
-1.49805
-1.47019
-1.44382
-1.41917
-1.3964
-1.37556
-1.35661
-1.33948
-1.32404
-1.31015
-1.29765
-1.28639
-1.27621
-1.26697
-1.25855
-1.25081
-1.24366
-1.237
-1.23076
-1.22485
-1.21922
-1.21381
-1.20858
-1.20349
-1.19849
-1.19356
-1.18868
-1.18382
-1.17896
-1.17409
-1.16919
-1.16426
-1.15928
-1.15424
-1.14914
-1.14398
-1.13874
-1.13343
-1.12804
-1.12258
-1.11703
-1.1114
-1.10569
-1.09989
-1.09401
-1.08805
-1.08201
-1.07588
-1.06967
-1.06338
-1.05701
-1.05056
-1.04403
-1.03742
-1.03074
-1.02398
-1.01714
-1.01023
-1.00325
-0.996192
-0.989064
-0.981866
-0.974597
-0.96726
-0.959853
-0.95238
-0.944839
-0.937231
-0.929558
-0.921819
-0.914014
-0.906145
-0.898212
-0.890213
-0.882151
-0.874024
-0.865832
-0.857576
-0.849254
-0.840867
-0.832415
-0.823897
-0.815313
-0.806662
-0.797945
-0.789159
-0.780306
-0.771385
-0.762395
-0.753336
-0.744207
-0.735007
-0.725737
-0.716395
-0.706982
-0.697496
-0.687937
-0.678305
-0.668599
-0.658818
-0.648962
-0.639032
-0.629025
-0.618942
-0.608783
-0.598547
-0.588234
-0.577845
-0.567378
-0.556835
-0.546215
-0.535518
-0.524746
-0.513895
-0.502974
-0.491951
-0.480929
-1.62904
-1.62922
-1.62941
-1.62963
-1.62996
-1.63045
-1.63116
-1.63215
-1.63346
-1.63515
-1.63729
-1.63994
-1.64316
-1.64703
-1.65163
-1.65702
-1.66327
-1.67041
-1.6785
-1.68753
-1.69752
-1.70844
-1.72023
-1.73284
-1.74618
-1.76013
-1.77455
-1.7893
-1.80421
-1.81907
-1.83368
-1.84781
-1.86123
-1.87372
-1.88505
-1.895
-1.90339
-1.91007
-1.91489
-1.91778
-1.91868
-1.91758
-1.91449
-1.9095
-1.90267
-1.89411
-1.88394
-1.87229
-1.85927
-1.84498
-1.82946
-1.81271
-1.79468
-1.77528
-1.75437
-1.73185
-1.70763
-1.68173
-1.65427
-1.62554
-1.59591
-1.56587
-1.53595
-1.50668
-1.4785
-1.45179
-1.42682
-1.40372
-1.38256
-1.36331
-1.34589
-1.33017
-1.31601
-1.30325
-1.29172
-1.28128
-1.27179
-1.26312
-1.25514
-1.24776
-1.24088
-1.23442
-1.22831
-1.22248
-1.21689
-1.21148
-1.20621
-1.20105
-1.19597
-1.19094
-1.18593
-1.18094
-1.17594
-1.17092
-1.16586
-1.16077
-1.15562
-1.15042
-1.14516
-1.13983
-1.13443
-1.12896
-1.12341
-1.11779
-1.11209
-1.10631
-1.10045
-1.09452
-1.0885
-1.0824
-1.07623
-1.06998
-1.06365
-1.05724
-1.05076
-1.0442
-1.03756
-1.03085
-1.02407
-1.01722
-1.01029
-1.00329
-0.996222
-0.989083
-0.981876
-0.974599
-0.967255
-0.959844
-0.952366
-0.944822
-0.937212
-0.929537
-0.921797
-0.913992
-0.906123
-0.89819
-0.890192
-0.88213
-0.874004
-0.865813
-0.857558
-0.849237
-0.840852
-0.832401
-0.823884
-0.815301
-0.806651
-0.797934
-0.78915
-0.780298
-0.771377
-0.762388
-0.75333
-0.744201
-0.735003
-0.725733
-0.716392
-0.706979
-0.697494
-0.687936
-0.678304
-0.668599
-0.658819
-0.648964
-0.639034
-0.629028
-0.618946
-0.608788
-0.598553
-0.588241
-0.577852
-0.567386
-0.556843
-0.546223
-0.535525
-0.524751
-0.513899
-0.502972
-0.491949
-0.480903
-1.63219
-1.63224
-1.63232
-1.63247
-1.63274
-1.63321
-1.63392
-1.63491
-1.63624
-1.63797
-1.64015
-1.64284
-1.64611
-1.65002
-1.65466
-1.66008
-1.66635
-1.67351
-1.68159
-1.69062
-1.70058
-1.71145
-1.7232
-1.73575
-1.74901
-1.76287
-1.77721
-1.79186
-1.80666
-1.8214
-1.8359
-1.84991
-1.86321
-1.87558
-1.88679
-1.89663
-1.90492
-1.9115
-1.91624
-1.91907
-1.91993
-1.91881
-1.91573
-1.91078
-1.904
-1.89552
-1.88548
-1.874
-1.86121
-1.84721
-1.83204
-1.81571
-1.79816
-1.77927
-1.7589
-1.7369
-1.71317
-1.68771
-1.66062
-1.63216
-1.60272
-1.5728
-1.54294
-1.51367
-1.48547
-1.4587
-1.43365
-1.41045
-1.38917
-1.36978
-1.3522
-1.3363
-1.32194
-1.30896
-1.29721
-1.28654
-1.27682
-1.2679
-1.25969
-1.25208
-1.24497
-1.23829
-1.23196
-1.22593
-1.22014
-1.21454
-1.2091
-1.20376
-1.19852
-1.19333
-1.18818
-1.18304
-1.1779
-1.17275
-1.16757
-1.16235
-1.15709
-1.15178
-1.14642
-1.14099
-1.13549
-1.12993
-1.1243
-1.1186
-1.11283
-1.10698
-1.10105
-1.09505
-1.08898
-1.08283
-1.07661
-1.07031
-1.06394
-1.05749
-1.05097
-1.04438
-1.03772
-1.03098
-1.02418
-1.0173
-1.01036
-1.00334
-0.996259
-0.989109
-0.981891
-0.974607
-0.967256
-0.959839
-0.952356
-0.944808
-0.937196
-0.929519
-0.921777
-0.913972
-0.906102
-0.898169
-0.890171
-0.88211
-0.873984
-0.865794
-0.85754
-0.849221