/*--------------------------------*- C++ -*----------------------------------*\
  =========                 |
  \\      /  F ield         | OpenFOAM: The Open Source CFD Toolbox
   \\    /   O peration     | Website:  https://openfoam.org
    \\  /    A nd           | Version:  8
     \\/     M anipulation  |
\*---------------------------------------------------------------------------*/
FoamFile
{
    version     2.0;
    format      ascii;
    class       surfaceScalarField;
    location    "0.22";
    object      phi;
}
// * * * * * * * * * * * * * * * * * * * * * * * * * * * * * * * * * * * * * //

dimensions      [0 3 -1 0 0 0 0];

internalField   nonuniform List<scalar> 
24170
(
6.27978e-08
1.13286e-07
2.84611e-08
3.43366e-08
1.98183e-08
8.64288e-09
1.61944e-08
3.62387e-09
1.37657e-08
2.42868e-09
1.19405e-08
1.82518e-09
1.05479e-08
1.39266e-09
9.42744e-09
1.12045e-09
8.48339e-09
9.44044e-10
7.66159e-09
8.21801e-10
6.92455e-09
7.37037e-10
6.24399e-09
6.80567e-10
5.59757e-09
6.4642e-10
4.96604e-09
6.31523e-10
4.33362e-09
6.32424e-10
3.67882e-09
6.54799e-10
3.03924e-09
6.39579e-10
1.84696e-09
1.19228e-09
1.4098e-07
1.61029e-07
9.16846e-08
8.36323e-08
6.75924e-08
3.27351e-08
5.51171e-08
1.60992e-08
4.74052e-08
1.01406e-08
4.176e-08
7.47038e-09
3.73862e-08
5.76642e-09
3.38651e-08
4.64161e-09
3.09124e-08
3.89674e-09
2.8353e-08
3.38122e-09
2.60694e-08
3.02063e-09
2.39741e-08
2.77587e-09
2.19974e-08
2.6231e-09
2.00791e-08
2.54979e-09
1.8161e-08
2.55058e-09
1.61743e-08
2.64146e-09
1.39065e-08
2.90737e-09
5.01777e-09
1.07357e-08
1.95154e-07
1.68142e-07
1.55548e-07
1.23238e-07
1.23564e-07
6.47197e-08
1.02751e-07
3.69122e-08
8.92732e-08
2.36182e-08
7.95426e-08
1.7201e-08
7.19642e-08
1.33448e-08
6.58319e-08
1.0774e-08
6.06916e-08
9.037e-09
5.62444e-08
7.82842e-09
5.22884e-08
6.97666e-09
4.86743e-08
6.38997e-09
4.52829e-08
6.01444e-09
4.20108e-08
5.82185e-09
3.8754e-08
5.80741e-09
3.53844e-08
6.01105e-09
3.16088e-08
6.68304e-09
9.25681e-09
2.73697e-08
2.32671e-07
1.52256e-07
2.11152e-07
1.44757e-07
1.81575e-07
9.42971e-08
1.56712e-07
6.17751e-08
1.38441e-07
4.18887e-08
1.24864e-07
3.0778e-08
1.14184e-07
2.40248e-08
1.05458e-07
1.95004e-08
9.81081e-08
1.63869e-08
9.17391e-08
1.41973e-08
8.60761e-08
1.26398e-08
8.09145e-08
1.15515e-08
7.60908e-08
1.08381e-08
7.1463e-08
1.04497e-08
6.68898e-08
1.03806e-08
6.2207e-08
1.06938e-08
5.71806e-08
1.17095e-08
1.4447e-08
5.19904e-08
2.5801e-07
1.26591e-07
2.54431e-07
1.48336e-07
2.34669e-07
1.14059e-07
2.11981e-07
8.44636e-08
1.92055e-07
6.18143e-08
1.75985e-07
4.68478e-08
1.62909e-07
3.71016e-08
1.52008e-07
3.04005e-08
1.42714e-07
2.56813e-08
1.34603e-07
2.23084e-08
1.27364e-07
1.98786e-08
1.20761e-07
1.8155e-08
1.14601e-07
1.69981e-08
1.08717e-07
1.63328e-08
1.02952e-07
1.61462e-08
9.71393e-08
1.65064e-08
9.11352e-08
1.77135e-08
2.03929e-08
8.51894e-08
2.75939e-07
9.96727e-08
2.85426e-07
1.38849e-07
2.77953e-07
1.21532e-07
2.62608e-07
9.98087e-08
2.45372e-07
7.90508e-08
2.29479e-07
6.27408e-08
2.156e-07
5.098e-08
2.03551e-07
4.24493e-08
1.93014e-07
3.62182e-08
1.83671e-07
3.16521e-08
1.75246e-07
2.83033e-08
1.67515e-07
2.58857e-08
1.60289e-07
2.42244e-08
1.53401e-07
2.32208e-08
1.46699e-07
2.2848e-08
1.40048e-07
2.31581e-08
1.33383e-07
2.43776e-08
2.68195e-08
1.26957e-07
2.90644e-07
7.59222e-08
3.07175e-07
1.22318e-07
3.10219e-07
1.18488e-07
3.04257e-07
1.05771e-07
2.93242e-07
9.00659e-08
2.80683e-07
7.52994e-08
2.68341e-07
6.33218e-08
2.56822e-07
5.39682e-08
2.46268e-07
4.6772e-08
2.36618e-07
4.13025e-08
2.27735e-07
3.71865e-08
2.1947e-07
3.41502e-08
2.11682e-07
3.20128e-08
2.04238e-07
3.06646e-08
1.97023e-07
3.00637e-08
1.89949e-07
3.02319e-08
1.8302e-07
3.13066e-08
3.33731e-08
1.76466e-07
3.05112e-07
5.68597e-08
3.23802e-07
1.03628e-07
3.33558e-07
1.08732e-07
3.35854e-07
1.03475e-07
3.32291e-07
9.36288e-08
3.25289e-07
8.23009e-08
3.1674e-07
7.18715e-08
3.07698e-07
6.30094e-08
2.98719e-07
5.57519e-08
2.90048e-07
4.99725e-08
2.81761e-07
4.54737e-08
2.73845e-07
4.20662e-08
2.66252e-07
3.96056e-08
2.58922e-07
3.79947e-08
2.51801e-07
3.7185e-08
2.44866e-07
3.71667e-08
2.38173e-07
3.79995e-08
3.9615e-08
2.31931e-07
3.21059e-07
4.2381e-08
3.3893e-07
8.57575e-08
3.51674e-07
9.59878e-08
3.59389e-07
9.57603e-08
3.62198e-07
9.08201e-08
3.61147e-07
8.3352e-08
3.57565e-07
7.54532e-08
3.52454e-07
6.81207e-08
3.46499e-07
6.17068e-08
3.40141e-07
5.63307e-08
3.33634e-07
5.19808e-08
3.27113e-07
4.85871e-08
3.20645e-07
4.60733e-08
3.14263e-07
4.43766e-08
3.07992e-07
4.34555e-08
3.0188e-07
4.32795e-08
2.96025e-07
4.38543e-08
4.5023e-08
2.90617e-07
3.39252e-07
3.17143e-08
3.54971e-07
7.00383e-08
3.68153e-07
8.28055e-08
3.78386e-07
8.55278e-08
3.8529e-07
8.39156e-08
3.88974e-07
7.96683e-08
3.90072e-07
7.43552e-08
3.89238e-07
6.89545e-08
3.8702e-07
6.39243e-08
3.83854e-07
5.94974e-08
3.80055e-07
5.57791e-08
3.75847e-07
5.27958e-08
3.71382e-07
5.05383e-08
3.66775e-07
4.89833e-08
3.62125e-07
4.81054e-08
3.57539e-07
4.7866e-08
3.53151e-07
4.82418e-08
4.90433e-08
3.49131e-07
3.59929e-07
2.39535e-08
3.73186e-07
5.67817e-08
3.85516e-07
7.04753e-08
3.96251e-07
7.47925e-08
4.05036e-07
7.51313e-08
4.11583e-07
7.31206e-08
4.16056e-07
6.98826e-08
4.18764e-07
6.62464e-08
4.20022e-07
6.26664e-08
4.20129e-07
5.93909e-08
4.19347e-07
5.65603e-08
4.17897e-07
5.42457e-08
4.15959e-07
5.24764e-08
4.13687e-07
5.1256e-08
4.11221e-07
5.05714e-08
4.08702e-07
5.03843e-08
4.06285e-07
5.06587e-08
5.12149e-08
4.04114e-07
3.22059e-07
1.89402e-08
3.31442e-07
4.73988e-08
3.40801e-07
6.11165e-08
3.49517e-07
6.60761e-08
3.57278e-07
6.73702e-08
3.6378e-07
6.66186e-08
3.69005e-07
6.46578e-08
3.73062e-07
6.21894e-08
3.7608e-07
5.96485e-08
3.782e-07
5.72707e-08
3.79571e-07
5.51896e-08
3.80335e-07
5.34816e-08
3.80626e-07
5.21854e-08
3.8057e-07
5.13124e-08
3.80288e-07
5.08533e-08
3.79902e-07
5.07701e-08
3.79536e-07
5.10251e-08
5.14608e-08
3.7929e-07
3.90797e-07
1.46264e-08
3.99797e-07
3.83984e-08
4.09412e-07
5.15017e-08
4.1867e-07
5.68178e-08
4.27315e-07
5.87259e-08
4.3504e-07
5.88936e-08
4.41749e-07
5.79481e-08
4.47488e-07
5.6451e-08
4.52324e-07
5.48128e-08
4.56338e-07
5.32563e-08
4.5963e-07
5.18978e-08
4.62309e-07
5.08026e-08
4.6449e-07
5.00044e-08
4.66291e-07
4.95114e-08
4.67833e-07
4.9311e-08
4.69238e-07
4.93654e-08
4.70631e-07
4.96318e-08
4.99913e-08
4.72101e-07
4.74706e-07
1.10486e-08
4.83052e-07
3.00527e-08
4.92701e-07
4.18523e-08
5.02278e-07
4.72408e-08
5.11498e-07
4.95064e-08
5.20097e-07
5.02945e-08
5.27928e-07
5.01163e-08
5.34994e-07
4.93851e-08
5.4134e-07
4.84667e-08
5.47021e-07
4.75759e-08
5.52103e-07
4.6816e-08
5.56667e-07
4.62379e-08
5.60807e-07
4.58648e-08
5.64621e-07
4.56976e-08
5.68214e-07
4.57178e-08
5.71691e-07
4.58882e-08
5.75159e-07
4.61638e-08
4.64681e-08
5.78682e-07
5.77273e-07
8.08775e-09
5.84835e-07
2.24906e-08
5.94339e-07
3.23474e-08
6.04159e-07
3.74208e-08
6.13843e-07
3.98228e-08
6.23148e-07
4.09891e-08
6.31894e-07
4.1371e-08
6.40033e-07
4.1246e-08
6.47597e-07
4.09028e-08
6.54636e-07
4.05366e-08
6.61211e-07
4.02409e-08
6.67394e-07
4.00553e-08
6.73264e-07
3.99942e-08
6.78909e-07
4.00533e-08
6.84414e-07
4.02122e-08
6.89865e-07
4.04378e-08
6.95339e-07
4.06894e-08
4.09243e-08
7.00883e-07
7.02623e-07
5.55811e-09
7.09499e-07
1.56153e-08
7.18833e-07
2.30136e-08
7.28978e-07
2.72757e-08
7.39252e-07
2.95482e-08
7.49367e-07
3.08746e-08
7.5911e-07
3.16278e-08
7.68378e-07
3.19778e-08
7.77167e-07
3.21144e-08
7.85515e-07
3.21878e-08
7.93482e-07
3.22738e-08
8.01137e-07
3.24008e-08
8.08555e-07
3.25761e-08
8.15815e-07
3.27932e-08
8.22993e-07
3.30347e-08
8.30156e-07
3.3275e-08
8.37362e-07
3.34833e-08
3.36389e-08
8.44647e-07
8.55748e-07
3.23366e-09
8.623e-07
9.06351e-09
8.71738e-07
1.3576e-08
8.82531e-07
1.64822e-08
8.9379e-07
1.82893e-08
9.0511e-07
1.95549e-08
9.16241e-07
2.04965e-08
9.27026e-07
2.11926e-08
9.37407e-07
2.17337e-08
9.47393e-07
2.22017e-08
9.57028e-07
2.26391e-08
9.6637e-07
2.30586e-08
9.75486e-07
2.34598e-08
9.84445e-07
2.38348e-08
9.93309e-07
2.41702e-08
1.00213e-06
2.44493e-08
1.01097e-06
2.46529e-08
2.47741e-08
1.01983e-06
1.04275e-06
8.16191e-10
1.04974e-06
2.07938e-09
1.06014e-06
3.17205e-09
1.07242e-06
4.19842e-09
1.0855e-06
5.21438e-09
1.09883e-06
6.22771e-09
1.1121e-06
7.21859e-09
1.12513e-06
8.17084e-09
1.13778e-06
9.07938e-09
1.15004e-06
9.94164e-09
1.16193e-06
1.07519e-08
1.17349e-06
1.15016e-08
1.18476e-06
1.21811e-08
1.19582e-06
1.27805e-08
1.2067e-06
1.32899e-08
1.21745e-06
1.37003e-08
1.2281e-06
1.40031e-08
1.42019e-08
1.23867e-06
1.27129e-06
-2.29456e-09
1.28039e-06
-7.01592e-09
1.29386e-06
-1.02959e-08
1.30961e-06
-1.15553e-08
1.32629e-06
-1.14681e-08
1.34327e-06
-1.07454e-08
1.36016e-06
-9.6782e-09
1.37672e-06
-8.38855e-09
1.3928e-06
-6.99935e-09
1.40836e-06
-5.61548e-09
1.42341e-06
-4.29776e-09
1.43799e-06
-3.07703e-09
1.45214e-06
-1.97179e-09
1.46591e-06
-9.94296e-10
1.47936e-06
-1.51441e-10
1.4925e-06
5.54672e-10
1.50538e-06
1.12437e-09
1.5699e-09
1.51801e-06
9.31688e-07
-5.58753e-09
9.40715e-07
-1.60426e-08
9.53199e-07
-2.27799e-08
9.67051e-07
-2.54077e-08
9.81253e-07
-2.56698e-08
9.95392e-07
-2.48845e-08
1.00921e-06
-2.34968e-08
1.02255e-06
-2.17252e-08
1.03534e-06
-1.97969e-08
1.04761e-06
-1.78789e-08
1.05937e-06
-1.60556e-08
1.07065e-06
-1.43657e-08
1.08151e-06
-1.28308e-08
1.09198e-06
-1.14623e-08
1.10209e-06
-1.02631e-08
1.11188e-06
-9.23028e-09
1.12136e-06
-8.35738e-09
-7.62892e-09
1.13056e-06
8.12592e-07
-9.96424e-09
8.24028e-07
-2.74787e-08
8.38539e-07
-3.72909e-08
8.53577e-07
-4.04459e-08
8.68438e-07
-4.05303e-08
8.82871e-07
-3.93176e-08
8.9665e-07
-3.72759e-08
9.09676e-07
-3.47517e-08
9.2196e-07
-3.20809e-08
9.33543e-07
-2.94614e-08
9.44468e-07
-2.69812e-08
9.54785e-07
-2.46827e-08
9.64544e-07
-2.25893e-08
9.73792e-07
-2.07105e-08
9.82574e-07
-1.90452e-08
9.9093e-07
-1.75861e-08
9.98893e-07
-1.63209e-08
-1.52374e-08
1.0065e-06
7.10011e-07
-1.63833e-08
7.25261e-07
-4.27284e-08
7.42575e-07
-5.46051e-08
7.5932e-07
-5.71911e-08
7.75278e-07
-5.64882e-08
7.90215e-07
-5.42547e-08
8.03889e-07
-5.09502e-08
8.16282e-07
-4.71448e-08
8.27479e-07
-4.32779e-08
8.37577e-07
-3.95588e-08
8.46677e-07
-3.60812e-08
8.54888e-07
-3.28939e-08
8.62316e-07
-3.00178e-08
8.69059e-07
-2.74534e-08
8.75202e-07
-2.51883e-08
8.80821e-07
-2.32048e-08
8.85978e-07
-2.14778e-08
-1.99978e-08
8.90738e-07
6.22563e-07
-2.64341e-08
6.43105e-07
-6.32707e-08
6.63598e-07
-7.50975e-08
6.82018e-07
-7.56113e-08
6.98412e-07
-7.28826e-08
7.12361e-07
-6.82037e-08
7.23781e-07
-6.23696e-08
7.32954e-07
-5.63177e-08
7.40226e-07
-5.05502e-08
7.45922e-07
-4.5255e-08
7.50343e-07
-4.05014e-08
7.5375e-07
-3.6301e-08
7.5636e-07
-3.26279e-08
7.58345e-07
-2.94384e-08
7.59839e-07
-2.66825e-08
7.60946e-07
-2.43115e-08
7.61743e-07
-2.2275e-08
-2.05516e-08
7.62297e-07
5.49322e-07
-4.25327e-08
5.76052e-07
-9.00012e-08
5.98543e-07
-9.75884e-08
6.16015e-07
-9.30836e-08
6.28622e-07
-8.54897e-08
6.36435e-07
-7.60167e-08
6.40383e-07
-6.6317e-08
6.41555e-07
-5.749e-08
6.40815e-07
-4.98102e-08
6.38815e-07
-4.32544e-08
6.36034e-07
-3.77209e-08
6.32808e-07
-3.30745e-08
6.29357e-07
-2.91776e-08
6.25826e-07
-2.59074e-08
6.22304e-07
-2.31603e-08
6.18842e-07
-2.08497e-08
6.1547e-07
-1.89025e-08
-1.7276e-08
6.12194e-07
4.89091e-07
-6.74259e-08
5.19954e-07
-1.20864e-07
5.38759e-07
-1.16394e-07
5.47586e-07
-1.01911e-07
5.48332e-07
-8.62357e-08
5.43437e-07
-7.11213e-08
5.35525e-07
-5.84054e-08
5.26333e-07
-4.82974e-08
5.16832e-07
-4.03097e-08
5.07563e-07
-3.3985e-08
4.98795e-07
-2.89534e-08
4.90636e-07
-2.49157e-08
4.83104e-07
-2.16454e-08
4.76173e-07
-1.89759e-08
4.69795e-07
-1.67824e-08
4.63914e-07
-1.49692e-08
4.58476e-07
-1.34638e-08
-1.22143e-08
4.53414e-07
4.38447e-07
-1.01765e-07
4.64359e-07
-1.46776e-07
4.68043e-07
-1.20078e-07
4.58674e-07
-9.25419e-08
4.42451e-07
-7.00121e-08
4.24335e-07
-5.30055e-08
4.07068e-07
-4.1138e-08
3.91515e-07
-3.2745e-08
3.77795e-07
-2.65894e-08
3.65782e-07
-2.1972e-08
3.55266e-07
-1.84372e-08
3.46025e-07
-1.56752e-08
3.37862e-07
-1.34823e-08
3.30607e-07
-1.17205e-08
3.24116e-07
-1.02915e-08
3.18269e-07
-9.12187e-09
3.12965e-07
-8.15979e-09
-7.35964e-09
3.0811e-07
3.88887e-07
-1.38856e-07
3.92917e-07
-1.50806e-07
3.71469e-07
-9.86304e-08
3.42961e-07
-6.40337e-08
3.15674e-07
-4.27251e-08
2.92877e-07
-3.02082e-08
2.74472e-07
-2.27336e-08
2.59475e-07
-1.77479e-08
2.47086e-07
-1.41999e-08
2.36719e-07
-1.16059e-08
2.27936e-07
-9.65411e-09
2.20408e-07
-8.14658e-09
2.13886e-07
-6.96116e-09
2.08183e-07
-6.01687e-09
2.03148e-07
-5.25652e-09
1.98663e-07
-4.63734e-09
1.94635e-07
-4.13128e-09
-3.70585e-09
1.90981e-07
3.26112e-07
-1.58712e-07
2.93362e-07
-1.18056e-07
2.51268e-07
-5.65366e-08
2.16879e-07
-2.96451e-08
1.92023e-07
-1.78687e-08
1.74255e-07
-1.24403e-08
1.60862e-07
-9.34075e-09
1.5033e-07
-7.21593e-09
1.4185e-07
-5.71952e-09
1.34889e-07
-4.64497e-09
1.29077e-07
-3.84243e-09
1.24156e-07
-3.22501e-09
1.19936e-07
-2.74186e-09
1.16278e-07
-2.35887e-09
1.13074e-07
-2.05186e-09
1.10239e-07
-1.80241e-09
1.07708e-07
-1.60014e-09
-1.42533e-09
1.05427e-07
2.353e-07
-1.27401e-07
1.70845e-07
-5.36e-08
1.30391e-07
-1.6083e-08
1.07245e-07
-6.49903e-09
9.32332e-08
-3.85697e-09
8.36086e-08
-2.81573e-09
7.63794e-08
-2.11156e-09
7.07709e-08
-1.60742e-09
6.63163e-08
-1.26486e-09
6.26941e-08
-1.02283e-09
5.96935e-08
-8.41818e-10
5.71711e-08
-7.02596e-10
5.50233e-08
-5.94036e-10
5.31727e-08
-5.08289e-10
5.15607e-08
-4.39821e-10
5.01423e-08
-3.84089e-10
4.88821e-08
-3.39925e-10
-2.98837e-10
4.77556e-08
1.04698e-07
5.10976e-08
3.50146e-08
2.85156e-08
2.46586e-08
2.18429e-08
1.97313e-08
1.81239e-08
1.6859e-08
1.58362e-08
1.49944e-08
1.42918e-08
1.36977e-08
1.31894e-08
1.27496e-08
1.23655e-08
1.20256e-08
1.17268e-08
4.89659e-10
-4.89659e-10
1.7442e-09
-1.25454e-09
3.49271e-09
-1.74851e-09
5.48731e-09
-1.9946e-09
7.54694e-09
-2.05963e-09
9.55071e-09
-2.00377e-09
1.14245e-08
-1.87384e-09
1.31269e-08
-1.70239e-09
1.4636e-08
-1.50908e-09
1.59395e-08
-1.30345e-09
1.70276e-08
-1.08816e-09
1.78896e-08
-8.61933e-10
1.85112e-08
-6.21665e-10
1.88752e-08
-3.63937e-10
1.89605e-08
-8.53297e-11
1.8744e-08
2.16462e-10
1.82003e-08
5.43693e-10
1.73019e-08
8.98469e-10
1.60187e-08
1.2832e-09
1.43171e-08
1.70158e-09
1.21593e-08
2.15781e-09
9.50325e-09
2.65602e-09
6.30307e-09
3.20019e-09
2.50927e-09
3.7938e-09
-1.9313e-09
4.44056e-09
-7.07326e-09
5.14197e-09
-1.29691e-08
5.89587e-09
-1.96677e-08
6.69856e-09
-2.72114e-08
7.54368e-09
-3.56331e-08
8.42172e-09
-4.49531e-08
9.31997e-09
-5.51756e-08
1.02226e-08
-6.62863e-08
1.11107e-08
-7.82492e-08
1.19629e-08
-9.10053e-08
1.27561e-08
-1.04471e-07
1.34659e-08
-1.18539e-07
1.40677e-08
-1.33077e-07
1.45378e-08
-1.47931e-07
1.48547e-08
-1.62931e-07
1.49997e-08
-1.77889e-07
1.49578e-08
-1.92608e-07
1.47187e-08
-2.06884e-07
1.42768e-08
-2.20516e-07
1.36314e-08
-2.33303e-07
1.27868e-08
-2.45054e-07
1.17518e-08
-2.55594e-07
1.05392e-08
-2.64759e-07
9.16571e-09
-2.72411e-07
7.65124e-09
-2.78428e-07
6.01758e-09
-2.82716e-07
4.28744e-09
-2.85198e-07
2.48208e-09
-2.85824e-07
6.25887e-10
-2.84586e-07
-1.23714e-09
-2.81516e-07
-3.07008e-09
-2.76671e-07
-4.8449e-09
-2.70137e-07
-6.53408e-09
-2.62027e-07
-8.11066e-09
-2.52477e-07
-9.54932e-09
-2.4165e-07
-1.08274e-08
-2.29724e-07
-1.19256e-08
-2.16895e-07
-1.28291e-08
-2.03367e-07
-1.35281e-08
-1.89349e-07
-1.40182e-08
-1.75048e-07
-1.43008e-08
-1.60666e-07
-1.43828e-08
-1.46389e-07
-1.42761e-08
-1.32392e-07
-1.39974e-08
-1.18826e-07
-1.35664e-08
-1.0582e-07
-1.30058e-08
-9.34804e-08
-1.23394e-08
-8.18891e-08
-1.15913e-08
-7.11038e-08
-1.07853e-08
-6.11604e-08
-9.94347e-09
-5.20742e-08
-9.08614e-09
-4.38435e-08
-8.23073e-09
-3.64513e-08
-7.3922e-09
-2.98682e-08
-6.58303e-09
-2.40562e-08
-5.8121e-09
-1.89706e-08
-5.08556e-09
-1.45616e-08
-4.40897e-09
-1.07776e-08
-3.78398e-09
-7.56687e-09
-3.21078e-09
-4.87727e-09
-2.6896e-09
-2.6578e-09
-2.21947e-09
-8.59217e-10
-1.79858e-09
5.64572e-10
-1.42379e-09
1.65683e-09
-1.09226e-09
2.45755e-09
-8.00716e-10
3.00346e-09
-5.45909e-10
3.32828e-09
-3.24818e-10
3.46103e-09
-1.32756e-10
3.42852e-09
3.25103e-11
3.2576e-09
1.70922e-10
2.96886e-09
2.88735e-10
2.58169e-09
3.87169e-10
2.11346e-09
4.68228e-10
1.57964e-09
5.33825e-10
9.93942e-10
5.85695e-10
3.68538e-10
6.25403e-10
-2.85814e-10
6.54352e-10
-9.59617e-10
6.73801e-10
-1.6445e-09
6.8488e-10
-2.33311e-09
6.88608e-10
-3.01901e-09
6.85903e-10
-3.6966e-09
6.7759e-10
-4.36103e-09
6.64427e-10
-5.00814e-09
6.47114e-10
-5.63453e-09
6.26382e-10
-6.23719e-09
6.02662e-10
-6.81378e-09
5.76591e-10
-7.36246e-09
5.48678e-10
-7.88184e-09
5.19383e-10
-8.37098e-09
4.89135e-10
-8.82931e-09
4.58325e-10
-9.25662e-09
4.27312e-10
-9.65304e-09
3.96419e-10
-1.0019e-08
3.65927e-10
-1.03551e-08
3.36086e-10
-1.06622e-08
3.07107e-10
-1.09413e-08
2.79166e-10
-1.11937e-08
2.52398e-10
-1.14206e-08
2.26912e-10
-1.16234e-08
2.02786e-10
-1.18035e-08
1.80072e-10
-1.19623e-08
1.58797e-10
-1.21013e-08
1.38973e-10
-1.22219e-08
1.2059e-10
-1.23255e-08
1.03625e-10
-1.24135e-08
8.80407e-11
-1.24873e-08
7.37884e-11
-1.25481e-08
6.08101e-11
-1.25972e-08
4.90412e-11
-1.26356e-08
3.8412e-11
-1.26644e-08
2.88497e-11
-1.26847e-08
2.02797e-11
-1.26973e-08
1.26266e-11
-1.27031e-08
5.81676e-12
-1.27031e-08
-7.88358e-14
-1.26978e-08
-5.24635e-12
-1.2688e-08
-9.84111e-12
-1.26738e-08
-1.41667e-11
-1.26562e-08
-1.75932e-11
-1.26355e-08
-2.06854e-11
-1.26122e-08
-2.33016e-11
-1.25867e-08
-2.55487e-11
-1.25592e-08
-2.74986e-11
-1.253e-08
-2.91577e-11
-1.24995e-08
-3.05608e-11
-1.24677e-08
-3.17369e-11
-1.2435e-08
-3.27097e-11
-1.24015e-08
-3.34972e-11
-1.23674e-08
-3.41144e-11
-1.23328e-08
-3.45723e-11
-1.22979e-08
-3.4879e-11
-1.22629e-08
-3.50389e-11
-1.22279e-08
-3.50532e-11
-1.21929e-08
-3.4919e-11
-1.21583e-08
-3.46296e-11
-1.21241e-08
-3.41742e-11
-1.20906e-08
-3.3537e-11
-1.20579e-08
-3.27005e-11
-1.20263e-08
-3.1614e-11
-1.1996e-08
-3.02898e-11
-1.19673e-08
-2.86674e-11
-1.19406e-08
-2.6698e-11
-1.19163e-08
-2.42729e-11
-1.18948e-08
-2.15136e-11
-1.18767e-08
-1.81209e-11
-1.18626e-08
-1.41249e-11
-1.18529e-08
-9.63964e-12
-1.18483e-08
-4.63237e-12
-1.1849e-08
7.31581e-13
-1.18556e-08
6.51075e-12
-1.18667e-08
1.11791e-11
-1.18824e-08
1.56269e-11
-1.18853e-08
2.89951e-12
-1.19027e-08
1.74165e-11
-1.1701e-08
-2.01671e-10
-3.2446e-11
-1.16686e-08
9.42413e-10
-1.43207e-09
3.02499e-09
-3.33711e-09
5.71408e-09
-4.4376e-09
8.62884e-09
-4.90936e-09
1.1498e-08
-4.92878e-09
1.41393e-08
-4.64509e-09
1.64359e-08
-4.17044e-09
1.83132e-08
-3.57964e-09
1.97191e-08
-2.91499e-09
2.06099e-08
-2.19423e-09
2.09414e-08
-1.41967e-09
2.06634e-08
-5.83995e-10
1.97144e-08
3.27401e-10
1.80289e-08
1.32156e-09
1.55337e-08
2.40985e-09
1.21493e-08
3.60083e-09
7.79134e-09
4.90169e-09
2.37022e-09
6.31959e-09
-4.20867e-09
7.86208e-09
-1.20433e-08
9.53621e-09
-2.12335e-08
1.1348e-08
-3.18799e-08
1.33024e-08
-4.40802e-08
1.54006e-08
-5.79255e-08
1.76391e-08
-7.34926e-08
2.00076e-08
-9.08382e-08
2.24876e-08
-1.09993e-07
2.50507e-08
-1.30953e-07
2.76588e-08
-1.53674e-07
3.02641e-08
-1.78062e-07
3.28103e-08
-2.03977e-07
3.52344e-08
-2.31223e-07
3.7469e-08
-2.59558e-07
3.94458e-08
-2.88694e-07
4.10985e-08
-3.18304e-07
4.23662e-08
-3.48034e-07
4.31959e-08
-3.77512e-07
4.35454e-08
-4.06358e-07
4.33842e-08
-4.34198e-07
4.26951e-08
-4.60672e-07
4.14736e-08
-4.85442e-07
3.97278e-08
-5.08201e-07
3.74771e-08
-5.28675e-07
3.4751e-08
-5.46631e-07
3.15872e-08
-5.61874e-07
2.80302e-08
-5.74251e-07
2.41292e-08
-5.8365e-07
1.99374e-08
-5.89994e-07
1.55098e-08
-5.93245e-07
1.09024e-08
-5.93399e-07
6.17189e-09
-5.90487e-07
1.37503e-09
-5.84594e-07
-3.41026e-09
-5.75844e-07
-8.12485e-09
-5.6436e-07
-1.27212e-08
-5.50281e-07
-1.71484e-08
-5.33773e-07
-2.13534e-08
-5.15022e-07
-2.52845e-08
-4.94241e-07
-2.88916e-08
-4.71662e-07
-3.21285e-08
-4.47536e-07
-3.49537e-08
-4.22129e-07
-3.73324e-08
-3.95719e-07
-3.92386e-08
-3.68591e-07
-4.0656e-08
-3.4103e-07
-4.15793e-08
-3.13317e-07
-4.20143e-08
-2.85721e-07
-4.19785e-08
-2.58498e-07
-4.14993e-08
-2.31882e-07
-4.06136e-08
-2.06082e-07
-3.93656e-08
-1.81284e-07
-3.78046e-08
-1.5764e-07
-3.59836e-08
-1.35274e-07
-3.39566e-08
-1.14283e-07
-3.17769e-08
-9.47304e-08
-2.94957e-08
-7.66561e-08
-2.71604e-08
-6.00734e-08
-2.48135e-08
-4.49754e-08
-2.24902e-08
-3.13326e-08
-2.02259e-08
-1.91016e-08
-1.80431e-08
-8.22646e-09
-1.59607e-08
1.35663e-09
-1.39921e-08
9.72275e-09
-1.21501e-08
1.6954e-08
-1.0442e-08
2.31341e-08
-8.86966e-09
2.83469e-08
-7.43233e-09
3.26756e-08
-6.12724e-09
3.62014e-08
-4.94959e-09
3.90025e-08
-3.89334e-09
4.11533e-08
-2.95158e-09
4.27242e-08
-2.11682e-09
4.37808e-08
-1.38136e-09
4.43852e-08
-7.37202e-10
4.45897e-08
-1.71991e-10
4.4453e-08
3.07678e-10
4.40191e-08
7.22634e-10
4.33316e-08
1.07468e-09
4.24299e-08
1.36986e-09
4.135e-08
1.61376e-09
4.01242e-08
1.81153e-09
3.87816e-08
1.96792e-09
3.73487e-08
2.08727e-09
3.5849e-08
2.17356e-09
3.43034e-08
2.23043e-09
3.27308e-08
2.2612e-09
3.11478e-08
2.26895e-09
2.95688e-08
2.25652e-09
2.80068e-08
2.22651e-09
2.64725e-08
2.18138e-09
2.49755e-08
2.12338e-09
2.35236e-08
2.0546e-09
2.21232e-08
1.97697e-09
2.07795e-08
1.89233e-09
1.94966e-08
1.80233e-09
1.82772e-08
1.7085e-09
1.71233e-08
1.61223e-09
1.60358e-08
1.51479e-09
1.5015e-08
1.4173e-09
1.40601e-08
1.32075e-09
1.31702e-08
1.22601e-09
1.23435e-08
1.13381e-09
1.15779e-08
1.04476e-09
1.0871e-08
9.59349e-10
1.02199e-08
8.77955e-10
9.62186e-09
8.00855e-10
9.07369e-09
7.28235e-10
8.57229e-09
6.602e-10
8.11447e-09
5.96788e-10
7.69709e-09
5.37974e-10
7.31703e-09
4.83684e-10
6.97127e-09
4.33798e-10
6.6569e-09
3.88161e-10
6.37112e-09
3.46589e-10
6.11129e-09
3.08875e-10
5.8749e-09
2.748e-10
5.65962e-09
2.44136e-10
5.46325e-09
2.16649e-10
5.28376e-09
1.92111e-10
5.11928e-09
1.70303e-10
4.96815e-09
1.51053e-10
4.8288e-09
1.34099e-10
4.69979e-09
1.19172e-10
4.5796e-09
1.06026e-10
4.4673e-09
9.47029e-11
4.36172e-09
8.48944e-11
4.26195e-09
7.64742e-11
4.16712e-09
6.92782e-11
4.07646e-09
6.31639e-11
3.98928e-09
5.80217e-11
3.90497e-09
5.37547e-11
3.82295e-09
5.0276e-11
3.74273e-09
4.75139e-11
3.66382e-09
4.54116e-11
3.58578e-09
4.39238e-11
3.50819e-09
4.30197e-11
3.43063e-09
4.26793e-11
3.3527e-09
4.28973e-11
3.27396e-09
4.36815e-11
3.19399e-09
4.50561e-11
3.1123e-09
4.70617e-11
3.02836e-09
4.97583e-11
2.9416e-09
5.32273e-11
2.85132e-09
5.7575e-11
2.75677e-09
6.29426e-11
2.657e-09
6.94836e-11
2.55092e-09
7.74053e-11
2.43727e-09
8.69576e-11
2.31455e-09
9.84486e-11
2.18087e-09
1.12165e-10
2.03417e-09
1.2858e-10
1.87193e-09
1.48115e-10
1.69115e-09
1.71134e-10
1.48842e-09
1.98102e-10
1.25984e-09
2.29311e-10
1.00125e-09
2.65101e-10
7.08711e-10
3.03718e-10
3.7804e-10
3.46299e-10
1.18431e-11
3.69096e-10
-3.98442e-10
4.27702e-10
-8.25583e-10
2.25469e-10
4.90919e-10
-1.34895e-09
8.41407e-10
-2.27348e-09
2.53847e-09
-5.03418e-09
4.52647e-09
-6.4256e-09
6.43957e-09
-6.82245e-09
8.04164e-09
-6.53086e-09
9.18196e-09
-5.78541e-09
9.76138e-09
-4.74986e-09
9.7065e-09
-3.52476e-09
8.95017e-09
-2.15865e-09
7.41749e-09
-6.61559e-10
5.02964e-09
9.68175e-10
1.68697e-09
2.75868e-09
-2.71604e-09
4.73041e-09
-8.2982e-09
6.90372e-09
-1.51839e-08
9.2955e-09
-2.35022e-08
1.19192e-08
-3.33855e-08
1.4785e-08
-4.49659e-08
1.79e-08
-5.8372e-08
2.12682e-08
-7.3725e-08
2.48892e-08
-9.11328e-08
2.87559e-08
-1.10683e-07
3.28522e-08
-1.32432e-07
3.71502e-08
-1.56401e-07
4.16079e-08
-1.82561e-07
4.61673e-08
-2.10827e-07
5.0754e-08
-2.41055e-07
5.52784e-08
-2.73035e-07
5.96385e-08
-3.06494e-07
6.37233e-08
-3.41102e-07
6.74184e-08
-3.76479e-07
7.06112e-08
-4.12207e-07
7.31967e-08
-4.47844e-07
7.50829e-08
-4.8294e-07
7.61945e-08
-5.1705e-07
7.64765e-08
-5.4975e-07
7.58958e-08
-5.80646e-07
7.44413e-08
-6.09385e-07
7.21231e-08
-6.3566e-07
6.89708e-08
-6.59217e-07
6.50306e-08
-6.79852e-07
6.03622e-08
-6.9741e-07
5.50357e-08
-7.11787e-07
4.91279e-08
-7.2292e-07
4.27199e-08
-7.30784e-07
3.58943e-08
-7.35389e-07
2.87337e-08
-7.3677e-07
2.13186e-08
-7.34988e-07
1.37275e-08
-7.30124e-07
6.03888e-09
-7.22287e-07
-1.66475e-09
-7.116e-07
-9.31184e-09
-6.98167e-07
-1.68435e-08
-6.82093e-07
-2.41992e-08
-6.63503e-07
-3.13109e-08
-6.42543e-07
-3.81089e-08
-6.19374e-07
-4.45222e-08
-5.94178e-07
-5.048e-08
-5.67157e-07
-5.59126e-08
-5.38532e-07
-6.07543e-08
-5.0854e-07
-6.49458e-08
-4.77435e-07
-6.8437e-08
-4.45483e-07
-7.11903e-08
-4.12957e-07
-7.31822e-08
-3.80131e-07
-7.44056e-08
-3.47274e-07
-7.48706e-08
-3.14649e-07
-7.46036e-08
-2.82502e-07
-7.36469e-08
-2.51059e-07
-7.20562e-08
-2.20527e-07
-6.9898e-08
-1.91084e-07
-6.72468e-08
-1.62886e-07
-6.41821e-08
-1.36058e-07
-6.0785e-08
-1.10698e-07
-5.71359e-08
-8.68828e-08
-5.33114e-08
-6.46591e-08
-4.93841e-08
-4.40538e-08
-4.54188e-08
-2.50691e-08
-4.1475e-08
-7.69852e-09
-3.75964e-08
8.08366e-09
-3.38253e-08
2.23222e-08
-3.01993e-08
3.50759e-08
-2.67457e-08
4.64096e-08
-2.34839e-08
5.63951e-08
-2.04275e-08
6.51095e-08
-1.75841e-08
7.2634e-08
-1.49568e-08
7.90511e-08
-1.25443e-08
8.4444e-08
-1.03425e-08
8.88951e-08
-8.34447e-09
9.24851e-08
-6.54157e-09
9.52921e-08
-4.92382e-09
9.73911e-08
-3.48034e-09
9.88536e-08
-2.19967e-09
9.97514e-08
-1.06985e-09
1.0014e-07
-8.09767e-11
1.00086e-07
7.76405e-10
9.96443e-08
1.51664e-09
9.88664e-08
2.14783e-09
9.78006e-08
2.67955e-09
9.64914e-08
3.12069e-09
9.49797e-08
3.4796e-09
9.33029e-08
3.76406e-09
9.14952e-08
3.9813e-09
8.95875e-08
4.1381e-09
8.76079e-08
4.24077e-09
8.55817e-08
4.29523e-09
8.35312e-08
4.30701e-09
8.14764e-08
4.28131e-09
7.94347e-08
4.22302e-09
7.74214e-08
4.13671e-09
7.54493e-08
4.02668e-09
7.35294e-08
3.89693e-09
7.16705e-08
3.75121e-09
6.98798e-08
3.59298e-09
6.81629e-08
3.42544e-09
6.65236e-08
3.25148e-09
6.49647e-08
3.07376e-09
6.34873e-08
2.89461e-09
6.2092e-08
2.71612e-09
6.07779e-08
2.5401e-09
5.95436e-08
2.36809e-09
5.8387e-08
2.20139e-09
5.73053e-08
2.04103e-09
5.62954e-08
1.88784e-09
5.53538e-08
1.74244e-09
5.44768e-08
1.60524e-09
5.36605e-08
1.47652e-09
5.29009e-08
1.35638e-09
5.2194e-08
1.24483e-09
5.1536e-08
1.14175e-09
5.09228e-08
1.04694e-09
5.03509e-08
9.60129e-10
4.98165e-08
8.80987e-10
4.93162e-08
8.09141e-10
4.88468e-08
7.44187e-10
4.84052e-08
6.85705e-10
4.79886e-08
6.33266e-10
4.75943e-08
5.8644e-10
4.72198e-08
5.44813e-10
4.68629e-08
5.07983e-10
4.65214e-08
4.75532e-10
4.61936e-08
4.47048e-10
4.58774e-08
4.22162e-10
4.55715e-08
4.006e-10
4.52744e-08
3.82015e-10
4.49848e-08
3.66108e-10
4.47014e-08
3.52599e-10
4.44234e-08
3.4124e-10
4.41496e-08
3.31815e-10
4.38792e-08
3.24136e-10
4.36114e-08
3.18045e-10
4.33455e-08
3.13405e-10
4.30808e-08
3.10109e-10
4.28167e-08
3.08078e-10
4.25525e-08
3.07253e-10
4.22875e-08
3.07607e-10
4.20213e-08
3.09138e-10
4.17531e-08
3.11875e-10
4.14823e-08
3.15881e-10
4.12081e-08
3.21255e-10
4.09297e-08
3.28141e-10
4.06462e-08
3.36731e-10
4.03565e-08
3.47276e-10
4.00593e-08
3.60093e-10
3.97532e-08
3.75574e-10
3.94364e-08
3.94205e-10
3.91068e-08
4.16576e-10
3.87619e-08
4.4341e-10
3.83985e-08
4.7555e-10
3.8013e-08
5.14029e-10
3.76011e-08
5.60034e-10
3.71574e-08
6.14859e-10
3.66755e-08
6.80011e-10
3.61478e-08
7.56995e-10
3.55654e-08
8.47456e-10
3.49179e-08
9.51266e-10
3.41935e-08
1.07073e-09
3.33752e-08
1.18735e-09
3.24573e-08
1.34565e-09
3.13192e-08
1.36356e-09
1.64884e-09
3.01612e-08
4.04248e-10
-2.67773e-09
9.59941e-10
-5.58987e-09
1.24467e-09
-6.71033e-09
1.01664e-09
-6.59442e-09
1.43683e-10
-5.6579e-09
-1.4488e-09
-4.19293e-09
-3.81562e-09
-2.38305e-09
-7.01403e-09
-3.2635e-10
-1.11182e-08
1.94556e-09
-1.62214e-08
4.44164e-09
-2.24453e-08
7.19204e-09
-2.99203e-08
1.02337e-08
-3.87907e-08
1.36008e-08
-4.92071e-08
1.73201e-08
-6.13214e-08
2.14098e-08
-7.52815e-08
2.58794e-08
-9.12262e-08
3.07296e-08
-1.09278e-07
3.59523e-08
-1.29538e-07
4.15281e-08
-1.52074e-07
4.74248e-08
-1.76912e-07
5.35938e-08
-2.04028e-07
5.9968e-08
-2.33337e-07
6.64596e-08
-2.6469e-07
7.29607e-08
-2.97866e-07
7.9344e-08
-3.3258e-07
8.54675e-08
-3.68482e-07
9.11799e-08
-4.0517e-07
9.63273e-08
-4.42208e-07
1.00761e-07
-4.79134e-07
1.04344e-07
-5.15483e-07
1.06961e-07
-5.50805e-07
1.08518e-07
-5.84673e-07
1.08951e-07
-6.16705e-07
1.08226e-07
-6.46566e-07
1.06338e-07
-6.73977e-07
1.03307e-07
-6.98717e-07
9.9181e-08
-7.2062e-07
9.40261e-08
-7.39574e-07
8.79246e-08
-7.55513e-07
8.09696e-08
-7.68411e-07
7.32609e-08
-7.78277e-07
6.49013e-08
-7.85142e-07
5.5993e-08
-7.89058e-07
4.66356e-08
-7.90087e-07
3.69241e-08
-7.88302e-07
2.69484e-08
-7.83777e-07
1.67939e-08
-7.7659e-07
6.53996e-09
-7.66823e-07
-3.72771e-09
-7.54536e-07
-1.39521e-08
-7.39781e-07
-2.40671e-08
-7.22622e-07
-3.40026e-08
-7.03138e-07
-4.36828e-08
-6.81422e-07
-5.3027e-08
-6.57581e-07
-6.19499e-08
-6.31741e-07
-7.03617e-08
-6.04052e-07
-7.81699e-08
-5.74682e-07
-8.52818e-08
-5.43829e-07
-9.16078e-08
-5.11709e-07
-9.70658e-08
-4.7856e-07
-1.01586e-07
-4.44636e-07
-1.05114e-07
-4.102e-07
-1.07618e-07
-3.75519e-07
-1.09086e-07
-3.40859e-07
-1.09531e-07
-3.06472e-07
-1.0899e-07
-2.72598e-07
-1.0752e-07
-2.39457e-07
-1.05198e-07
-2.07241e-07
-1.02114e-07
-1.7612e-07
-9.83675e-08
-1.46236e-07
-9.40662e-08
-1.17704e-07
-8.93174e-08
-9.06128e-08
-8.42271e-08
-6.50272e-08
-7.8897e-08
-4.09913e-08
-7.342e-08
-1.85299e-08
-6.78802e-08
2.34468e-09
-6.23495e-08
2.16407e-08
-5.68925e-08
3.93836e-08
-5.15681e-08
5.56067e-08
-4.64223e-08
7.03526e-08
-4.14917e-08
8.36726e-08
-3.68038e-08
9.56236e-08
-3.23785e-08
1.06268e-07
-2.82286e-08
1.15672e-07
-2.43607e-08
1.23904e-07
-2.07764e-08
1.31035e-07
-1.74731e-08
1.37135e-07
-1.44448e-08
1.42276e-07
-1.16829e-08
1.46529e-07
-9.17672e-09
1.49963e-07
-6.91433e-09
1.52646e-07
-4.88275e-09
1.54645e-07
-3.06849e-09
1.56022e-07
-1.45822e-09
1.56837e-07
-3.8868e-11
1.57151e-07
1.20288e-09
1.57019e-07
2.27988e-09
1.56494e-07
3.20432e-09
1.55627e-07
3.9881e-09
1.54464e-07
4.64257e-09
1.53049e-07
5.1785e-09
1.51425e-07
5.60618e-09
1.49627e-07
5.93534e-09
1.47693e-07
6.17527e-09
1.45653e-07
6.3348e-09
1.43538e-07
6.42236e-09
1.41373e-07
6.44598e-09
1.39183e-07
6.41333e-09
1.36988e-07
6.33168e-09
1.34807e-07
6.20794e-09
1.32655e-07
6.04862e-09
1.30546e-07
5.85988e-09
1.28492e-07
5.64743e-09
1.26501e-07
5.41657e-09
1.2458e-07
5.17218e-09
1.22735e-07
4.91869e-09
1.2097e-07
4.66009e-09
1.19286e-07
4.39991e-09
1.17685e-07
4.14125e-09
1.16166e-07
3.88677e-09
1.14729e-07
3.63872e-09
1.13371e-07
3.39895e-09
1.1209e-07
3.16894e-09
1.10882e-07
2.94981e-09
1.09745e-07
2.7424e-09
1.08674e-07
2.54726e-09
1.07666e-07
2.36469e-09