/*--------------------------------*- C++ -*----------------------------------*\
  =========                 |
  \\      /  F ield         | OpenFOAM: The Open Source CFD Toolbox
   \\    /   O peration     | Website:  https://openfoam.org
    \\  /    A nd           | Version:  8
     \\/     M anipulation  |
\*---------------------------------------------------------------------------*/
FoamFile
{
    version     2.0;
    format      ascii;
    class       volVectorField;
    location    "0.22";
    object      U;
}
// * * * * * * * * * * * * * * * * * * * * * * * * * * * * * * * * * * * * * //

dimensions      [0 1 -1 0 0 0 0];

internalField   nonuniform List<vector> 
12225
(
(0.2179 0.0330442 0)
(0.131012 0.00760662 0)
(0.0723016 0.00048248 0)
(0.054019 0.000258248 0)
(0.0465313 0.000299672 0)
(0.040046 0.000225861 0)
(0.0350485 0.000172258 0)
(0.0311941 0.000147237 0)
(0.028006 0.000131956 0)
(0.0252651 0.000121605 0)
(0.0228416 0.000115704 0)
(0.0206351 0.000113544 0)
(0.0185684 0.000114515 0)
(0.0165764 0.000118831 0)
(0.01461 0.000125324 0)
(0.0126174 0.000145037 0)
(0.0107896 7.19479e-05 0)
(0.00633939 0.0015582 0)
(0.434531 0.0898272 0)
(0.339253 0.0407235 0)
(0.226501 0.0128696 0)
(0.172966 0.00584314 0)
(0.14831 0.00386396 0)
(0.129689 0.00302351 0)
(0.115182 0.00242069 0)
(0.103858 0.00202588 0)
(0.0945328 0.00177615 0)
(0.0865528 0.00161 0)
(0.0795283 0.00150324 0)
(0.07317 0.00144493 0)
(0.0672539 0.00142883 0)
(0.0615915 0.00145348 0)
(0.056028 0.00151862 0)
(0.0503473 0.00163728 0)
(0.0446644 0.00185307 0)
(0.0351474 0.00428685 0)
(0.533774 0.1101 0)
(0.492208 0.072077 0)
(0.378444 0.0333908 0)
(0.30108 0.0179391 0)
(0.259119 0.0116587 0)
(0.229172 0.00887635 0)
(0.205875 0.00716207 0)
(0.187478 0.00600919 0)
(0.17232 0.00525112 0)
(0.159369 0.00474363 0)
(0.147996 0.00441112 0)
(0.137739 0.0042186 0)
(0.128242 0.00414844 0)
(0.119205 0.00419693 0)
(0.110371 0.00437427 0)
(0.101373 0.00472916 0)
(0.0921753 0.00550252 0)
(0.0796223 0.00871926 0)
(0.570081 0.104857 0)
(0.584923 0.092007 0)
(0.504784 0.0560979 0)
(0.425483 0.0352904 0)
(0.372539 0.0238929 0)
(0.333742 0.018061 0)
(0.30332 0.0146139 0)
(0.27896 0.0123103 0)
(0.258761 0.0107569 0)
(0.241463 0.0097041 0)
(0.226261 0.00900393 0)
(0.212572 0.00858302 0)
(0.199938 0.00840604 0)
(0.187975 0.00846588 0)
(0.176353 0.00878945 0)
(0.164622 0.0094738 0)
(0.152687 0.0109225 0)
(0.138317 0.0147353 0)
(0.576789 0.0890059 0)
(0.626937 0.0989683 0)
(0.590578 0.0738292 0)
(0.5297 0.0534485 0)
(0.477931 0.0389258 0)
(0.435957 0.0300032 0)
(0.401625 0.0244645 0)
(0.373417 0.0207378 0)
(0.349684 0.0181744 0)
(0.329181 0.0164089 0)
(0.31107 0.0152165 0)
(0.294725 0.0144777 0)
(0.279649 0.0141352 0)
(0.265419 0.0141766 0)
(0.251675 0.0146441 0)
(0.237968 0.0156727 0)
(0.224235 0.017718 0)
(0.208932 0.0218932 0)
(0.572632 0.0711537 0)
(0.635081 0.0956888 0)
(0.634752 0.0829777 0)
(0.601763 0.06765 0)
(0.563062 0.0535541 0)
(0.525987 0.0430347 0)
(0.492812 0.0357873 0)
(0.464114 0.0306961 0)
(0.439236 0.0270883 0)
(0.417333 0.0245492 0)
(0.39774 0.022804 0)
(0.379921 0.0216954 0)
(0.363421 0.0211456 0)
(0.347847 0.0211363 0)
(0.332865 0.0217172 0)
(0.318092 0.0230368 0)
(0.303551 0.025509 0)
(0.288104 0.0298253 0)
(0.566466 0.054797 0)
(0.625773 0.0861087 0)
(0.646712 0.083731 0)
(0.639499 0.0751632 0)
(0.619632 0.0644475 0)
(0.594357 0.0546089 0)
(0.568016 0.0468762 0)
(0.54308 0.0410163 0)
(0.520229 0.0366531 0)
(0.499375 0.0334787 0)
(0.480256 0.0312474 0)
(0.462575 0.029799 0)
(0.446028 0.0290503 0)
(0.430325 0.0289807 0)
(0.415223 0.0296397 0)
(0.400447 0.0311639 0)
(0.386127 0.0338783 0)
(0.371347 0.0381493 0)
(0.561414 0.0412771 0)
(0.610735 0.0738928 0)
(0.639533 0.0784995 0)
(0.649597 0.0759166 0)
(0.647093 0.0697276 0)
(0.636122 0.0623724 0)
(0.620438 0.0556438 0)
(0.603028 0.050027 0)
(0.585452 0.0455537 0)
(0.56835 0.0421449 0)
(0.551963 0.0396778 0)
(0.536329 0.0380475 0)
(0.521381 0.0371947 0)
(0.507002 0.0371091 0)
(0.493084 0.0378381 0)
(0.479497 0.0394906 0)
(0.466465 0.042294 0)
(0.453228 0.0463774 0)
(0.557963 0.0308123 0)
(0.596282 0.0615977 0)
(0.624425 0.0701663 0)
(0.642677 0.0716919 0)
(0.651823 0.069529 0)
(0.653014 0.0652762 0)
(0.648347 0.0605466 0)
(0.64011 0.0561218 0)
(0.629902 0.0523099 0)
(0.618677 0.0492431 0)
(0.60701 0.0469529 0)
(0.595232 0.04543 0)
(0.583515 0.0446686 0)
(0.571933 0.0446845 0)
(0.560538 0.0455281 0)
(0.549341 0.047278 0)
(0.538647 0.0500789 0)
(0.52785 0.0538986 0)
(0.555771 0.0230295 0)
(0.584743 0.0505263 0)
(0.608413 0.0609452 0)
(0.628423 0.064787 0)
(0.643083 0.0653875 0)
(0.651904 0.0638221 0)
(0.655663 0.0612683 0)
(0.655618 0.0584866 0)
(0.652861 0.0558696 0)
(0.648201 0.0536498 0)
(0.642248 0.0519627 0)
(0.635449 0.0508837 0)
(0.628113 0.0504642 0)
(0.620453 0.0507521 0)
(0.612648 0.0518043 0)
(0.604827 0.0536756 0)
(0.597333 0.0564507 0)
(0.589745 0.0600058 0)
(0.554411 0.0173556 0)
(0.576327 0.0411152 0)
(0.594685 0.0520941 0)
(0.613168 0.0570252 0)
(0.62904 0.0591638 0)
(0.641141 0.0594293 0)
(0.649668 0.0586243 0)
(0.65517 0.0573753 0)
(0.658176 0.0560515 0)
(0.659157 0.054889 0)
(0.658548 0.0540514 0)
(0.656732 0.053652 0)
(0.654021 0.0537743 0)
(0.650672 0.0544856 0)
(0.646916 0.0558444 0)
(0.642946 0.0578873 0)
(0.63909 0.0606583 0)
(0.635125 0.0639999 0)
(0.553651 0.0134085 0)
(0.570939 0.0338911 0)
(0.584874 0.0447887 0)
(0.600947 0.0500843 0)
(0.615998 0.0528784 0)
(0.62855 0.0541261 0)
(0.638692 0.0543902 0)
(0.646719 0.0541753 0)
(0.652841 0.053817 0)
(0.657272 0.0535256 0)
(0.660263 0.0534489 0)
(0.662073 0.0536978 0)
(0.662946 0.0543576 0)
(0.663107 0.0554945 0)
(0.66277 0.0571586 0)
(0.662134 0.0593704 0)
(0.661471 0.0621481 0)
(0.660718 0.0653411 0)
(0.553203 0.010471 0)
(0.567196 0.0278078 0)
(0.577389 0.0382285 0)
(0.590962 0.0436044 0)
(0.604605 0.0466838 0)
(0.616499 0.0484921 0)
(0.626734 0.0494383 0)
(0.635584 0.0499199 0)
(0.643133 0.0502479 0)
(0.649443 0.0506146 0)
(0.654637 0.0511446 0)
(0.658872 0.0519311 0)
(0.662312 0.0530466 0)
(0.665123 0.054545 0)
(0.667477 0.0564614 0)
(0.669542 0.058801 0)
(0.671514 0.0615614 0)
(0.673463 0.0646128 0)
(0.552926 0.00801626 0)
(0.564378 0.0221112 0)
(0.57116 0.0315739 0)
(0.582141 0.0368181 0)
(0.594141 0.0399715 0)
(0.604898 0.0420761 0)
(0.614439 0.0434578 0)
(0.623109 0.0444094 0)
(0.630973 0.0452106 0)
(0.638027 0.0460448 0)
(0.644322 0.0470193 0)
(0.649956 0.0482068 0)
(0.655036 0.0496607 0)
(0.659674 0.0514164 0)
(0.663989 0.0534902 0)
(0.668107 0.0558719 0)
(0.672143 0.0585387 0)
(0.676249 0.0613955 0)
(0.552773 0.00600201 0)
(0.562432 0.0169449 0)
(0.566388 0.0250062 0)
(0.574961 0.0298633 0)
(0.585378 0.0329164 0)
(0.594963 0.0351013 0)
(0.603566 0.0367086 0)
(0.611595 0.0379396 0)
(0.619145 0.0390219 0)
(0.62618 0.0401242 0)
(0.632721 0.0413429 0)
(0.638839 0.0427343 0)
(0.644617 0.0443346 0)
(0.650136 0.0461629 0)
(0.655478 0.0482192 0)
(0.660731 0.0504834 0)
(0.66595 0.0529204 0)
(0.671313 0.0554698 0)
(0.552695 0.00429882 0)
(0.561195 0.0122786 0)
(0.563036 0.0185968 0)
(0.569599 0.0227478 0)
(0.578669 0.0255092 0)
(0.587297 0.0275937 0)
(0.595094 0.0292539 0)
(0.602482 0.0306195 0)
(0.609594 0.0318496 0)
(0.616374 0.0330799 0)
(0.622811 0.0343906 0)
(0.628959 0.0358233 0)
(0.634889 0.0373996 0)
(0.640665 0.0391264 0)
(0.646345 0.0409948 0)
(0.651993 0.0429813 0)
(0.657633 0.0450499 0)
(0.663421 0.0471648 0)
(0.552664 0.00277754 0)
(0.560501 0.00795325 0)
(0.560957 0.0122677 0)
(0.566073 0.0153496 0)
(0.574159 0.0175657 0)
(0.582142 0.0193542 0)
(0.58942 0.0208907 0)
(0.59639 0.0222464 0)
(0.603219 0.0235101 0)
(0.609835 0.0247674 0)
(0.616193 0.0260709 0)
(0.622324 0.027444 0)
(0.628284 0.0288944 0)
(0.634122 0.0304191 0)
(0.639879 0.0320046 0)
(0.645599 0.0336283 0)
(0.651291 0.0352594 0)
(0.65707 0.0368764 0)
(0.552664 0.00127477 0)
(0.560251 0.00361778 0)
(0.560067 0.00566061 0)
(0.564463 0.00730231 0)
(0.572086 0.00867392 0)
(0.579827 0.00993659 0)
(0.58694 0.0111502 0)
(0.593796 0.0123297 0)
(0.600582 0.0134986 0)
(0.607224 0.0146833 0)
(0.613651 0.0158976 0)
(0.619869 0.0171426 0)
(0.62592 0.0184113 0)
(0.631841 0.0196918 0)
(0.637658 0.0209675 0)
(0.643397 0.022218 0)
(0.649064 0.0234193 0)
(0.65473 0.0245589 0)
(0.552698 -0.00047907 0)
(0.560486 -0.00142904 0)
(0.560578 -0.00209175 0)
(0.565276 -0.00223238 0)
(0.573232 -0.00194574 0)
(0.581312 -0.00139281 0)
(0.588747 -0.000658589 0)
(0.595904 0.000215871 0)
(0.602979 0.00119129 0)
(0.609897 0.00222913 0)
(0.61658 0.00329911 0)
(0.623029 0.00437812 0)
(0.629278 0.00544581 0)
(0.635354 0.00648266 0)
(0.641277 0.00746965 0)
(0.647065 0.00838899 0)
(0.652724 0.00922291 0)
(0.658291 0.00996628 0)
(0.552777 -0.00250451 0)
(0.561431 -0.00719301 0)
(0.563142 -0.0107082 0)
(0.569584 -0.0125764 0)
(0.578906 -0.0132762 0)
(0.588022 -0.0133347 0)
(0.596348 -0.0129768 0)
(0.604298 -0.0123058 0)
(0.612048 -0.0114317 0)
(0.61953 -0.0104553 0)
(0.626688 -0.00944349 0)
(0.633537 -0.00843721 0)
(0.640117 -0.00746608 0)
(0.646457 -0.00655417 0)
(0.652575 -0.00572091 0)
(0.658492 -0.00498129 0)
(0.664219 -0.00434794 0)
(0.669766 -0.00382019 0)
(0.552922 -0.00490732 0)
(0.563164 -0.0136892 0)
(0.567594 -0.0197198 0)
(0.576692 -0.022749 0)
(0.587959 -0.02399 0)
(0.598538 -0.0243216 0)
(0.608127 -0.0240497 0)
(0.61717 -0.0233467 0)
(0.625807 -0.0223968 0)
(0.633983 -0.0213417 0)
(0.641678 -0.020263 0)
(0.648928 -0.0192071 0)
(0.655779 -0.0182069 0)
(0.662268 -0.0172875 0)
(0.668424 -0.0164669 0)
(0.674276 -0.015758 0)
(0.679848 -0.0151693 0)
(0.685149 -0.014702 0)
(0.553251 -0.00825609 0)
(0.566512 -0.0220775 0)
(0.575408 -0.0303119 0)
(0.588315 -0.0339317 0)
(0.602183 -0.0353497 0)
(0.614703 -0.035674 0)
(0.625845 -0.0352163 0)
(0.63599 -0.0342376 0)
(0.645241 -0.0329939 0)
(0.653603 -0.0316468 0)
(0.661126 -0.0302812 0)
(0.667902 -0.0289499 0)
(0.674023 -0.0276919 0)
(0.679572 -0.0265353 0)
(0.684617 -0.025499 0)
(0.689225 -0.024596 0)
(0.693442 -0.0238319 0)
(0.69733 -0.0232197 0)
(0.553956 -0.0132987 0)
(0.572751 -0.0333336 0)
(0.588493 -0.0430444 0)
(0.606208 -0.04655 0)
(0.622738 -0.0476762 0)
(0.636595 -0.0474408 0)
(0.647927 -0.0461677 0)
(0.657118 -0.0442879 0)
(0.66447 -0.042148 0)
(0.670261 -0.0399387 0)
(0.674769 -0.0377664 0)
(0.67825 -0.0357011 0)
(0.680925 -0.0337884 0)
(0.682967 -0.0320546 0)
(0.684512 -0.0305121 0)
(0.68567 -0.0291663 0)
(0.686502 -0.0280121 0)
(0.687161 -0.027068 0)
(0.555456 -0.0212068 0)
(0.583929 -0.0484156 0)
(0.608707 -0.0581286 0)
(0.630023 -0.0602954 0)
(0.64583 -0.0598012 0)
(0.656215 -0.0574597 0)
(0.662064 -0.0539532 0)
(0.66448 -0.0500378 0)
(0.664505 -0.0461526 0)
(0.662946 -0.0424953 0)
(0.660376 -0.0391575 0)
(0.657199 -0.0361755 0)
(0.653695 -0.0335511 0)
(0.650051 -0.0312669 0)
(0.646378 -0.0292978 0)
(0.642756 -0.0276176 0)
(0.639186 -0.0261967 0)
(0.635864 -0.025036 0)
(0.558591 -0.0336302 0)
(0.601748 -0.067456 0)
(0.633236 -0.0739286 0)
(0.64953 -0.0718554 0)
(0.653977 -0.0668411 0)
(0.650692 -0.0601606 0)
(0.642591 -0.0532424 0)
(0.632025 -0.0469497 0)
(0.620652 -0.0415069 0)
(0.609366 -0.036895 0)
(0.598584 -0.0330285 0)
(0.588492 -0.0298004 0)
(0.57915 -0.0271061 0)
(0.570549 -0.0248562 0)
(0.562639 -0.0229781 0)
(0.555363 -0.021413 0)
(0.548612 -0.020113 0)
(0.542534 -0.019055 0)
(0.564654 -0.052613 0)
(0.622229 -0.08799 0)
(0.645272 -0.084489 0)
(0.637762 -0.0736666 0)
(0.616965 -0.0618185 0)
(0.592467 -0.0508294 0)
(0.567964 -0.0419651 0)
(0.545321 -0.0351793 0)
(0.52526 -0.0299696 0)
(0.507721 -0.0259226 0)
(0.492387 -0.0227397 0)
(0.478938 -0.0201999 0)
(0.467091 -0.018147 0)
(0.456594 -0.0164726 0)
(0.447234 -0.0150995 0)
(0.438836 -0.0139691 0)
(0.431212 -0.0130398 0)
(0.42444 -0.0122787 0)
(0.57223 -0.0786105 0)
(0.625531 -0.102477 0)
(0.610803 -0.0804246 0)
(0.562582 -0.0594283 0)
(0.515169 -0.0436046 0)
(0.476164 -0.0326873 0)
(0.444269 -0.0256278 0)
(0.418228 -0.0208697 0)
(0.396916 -0.0174438 0)
(0.379228 -0.0148861 0)
(0.364321 -0.0129259 0)
(0.351603 -0.0113861 0)
(0.340641 -0.0101551 0)
(0.331097 -0.00916021 0)
(0.322707 -0.00835051 0)
(0.315271 -0.00768693 0)
(0.308592 -0.00714443 0)
(0.302699 -0.0066925 0)
(0.565033 -0.101704 0)
(0.572058 -0.097529 0)
(0.498034 -0.0570021 0)
(0.417906 -0.0335789 0)
(0.364381 -0.0215047 0)
(0.328301 -0.0153547 0)
(0.301037 -0.0119392 0)
(0.279726 -0.00965125 0)
(0.262813 -0.00799272 0)
(0.249069 -0.00677051 0)
(0.237667 -0.00584279 0)
(0.228067 -0.00511683 0)
(0.219883 -0.00453878 0)
(0.212824 -0.00407378 0)
(0.20667 -0.00369678 0)
(0.201253 -0.00338805 0)
(0.196419 -0.00313693 0)
(0.192172 -0.00292049 0)
(0.494286 -0.0944919 0)
(0.421284 -0.0634055 0)
(0.311756 -0.0243253 0)
(0.239149 -0.0109362 0)
(0.204159 -0.00649425 0)
(0.182023 -0.00478294 0)
(0.164978 -0.00377374 0)
(0.151835 -0.00301513 0)
(0.141583 -0.00247148 0)
(0.133336 -0.00208201 0)
(0.126549 -0.00178683 0)
(0.120878 -0.00155507 0)
(0.116078 -0.00137085 0)
(0.111964 -0.00122304 0)
(0.108398 -0.00110342 0)
(0.105277 -0.00100513 0)
(0.102506 -0.000926152 0)
(0.100084 -0.000852516 0)
(0.270978 -0.0358848 0)
(0.168591 -0.0130665 0)
(0.101398 -0.00143265 0)
(0.0724005 -0.000340086 0)
(0.0621873 -0.000391107 0)
(0.0549962 -0.000333193 0)
(0.049206 -0.000249747 0)
(0.0448411 -0.000189725 0)
(0.0414872 -0.000152727 0)
(0.0388049 -0.0001267 0)
(0.0366102 -0.000106119 0)
(0.0347893 -8.97024e-05 0)
(0.0332589 -7.66827e-05 0)
(0.0319566 -6.62223e-05 0)
(0.0308354 -5.78019e-05 0)
(0.0298611 -5.04673e-05 0)
(0.0290004 -4.60795e-05 0)
(0.0282566 -3.80344e-05 0)
(0.000120965 -0.000280363 -2.01531e-20)
(0.000916463 -0.000697505 2.5252e-20)
(0.0022551 -0.000964909 0)
(0.00395235 -0.00110075 0)
(0.00578585 -0.00114611 0)
(0.00761304 -0.00113384 -2.5066e-20)
(0.00935039 -0.00108902 0)
(0.0109502 -0.00102939 0)
(0.0123866 -0.000965891 0)
(0.0136458 -0.000904024 0)
(0.0147187 -0.000845717 2.49295e-20)
(0.0155966 -0.000790794 0)
(0.0162683 -0.00073818 0)
(0.0167194 -0.000686923 0)
(0.0169326 -0.000636278 0)
(0.0168875 -0.00058607 2.49703e-20)
(0.0165621 -0.000535309 0)
(0.0159325 -0.000483017 0)
(0.0149726 -0.000428007 0)
(0.0136533 -0.000368455 0)
(0.0119423 -0.000301994 0)
(0.00980307 -0.00022593 0)
(0.00719538 -0.00013727 0)
(0.00407537 -3.29404e-05 2.55545e-20)
(0.000396434 9.00525e-05 -2.5585e-20)
(-0.00389163 0.000235054 2.54764e-20)
(-0.00883789 0.000405576 2.53256e-20)
(-0.0144896 0.000604989 0)
(-0.0208894 0.000836343 0)
(-0.0280731 0.00110222 -2.47492e-20)
(-0.0360663 0.00140454 -2.45156e-20)
(-0.044882 0.0017442 0)
(-0.0545174 0.00212063 0)
(-0.0649515 0.00253131 -2.37001e-20)
(-0.0761432 0.0029713 0)
(-0.0880297 0.0034329 0)
(-0.100526 0.00390566 2.27487e-20)
(-0.113524 0.00437656 0)
(-0.126896 0.00483062 2.20704e-20)
(-0.140496 0.00525177 4.34522e-20)
(-0.154161 0.00562378 0)
(-0.167716 0.00593132 0)
(-0.18098 0.00616091 0)
(-0.193767 0.00630168 0)
(-0.205893 0.00634591 0)
(-0.21718 0.00628933 3.94827e-20)
(-0.227458 0.00613097 3.88832e-20)
(-0.236572 0.00587252 3.83086e-20)
(-0.244382 0.00551715 0)
(-0.250766 0.00506831 -3.72405e-20)
(-0.255625 0.0045312 0)
(-0.258878 0.00391501 3.6289e-20)
(-0.260465 0.00323748 3.58584e-20)
(-0.26034 0.00252507 0)
(-0.258531 0.00179672 0)
(-0.25507 0.00106764 0)
(-0.250018 0.00035277 3.42409e-20)
(-0.243463 -0.00033301 0)
(-0.235518 -0.000975663 0)
(-0.226318 -0.00156257 0)
(-0.216016 -0.00208303 0)
(-0.204782 -0.00252869 0)
(-0.1928 -0.00289385 0)
(-0.180257 -0.0031757 0)
(-0.167344 -0.00337428 0)
(-0.154249 -0.00349239 -3.25437e-20)
(-0.14115 -0.00353525 0)
(-0.128215 -0.00351012 0)
(-0.115593 -0.00342573 3.24358e-20)
(-0.103414 -0.00329174 3.24235e-20)
(-0.0917871 -0.00311821 0)
(-0.0808006 -0.0029151 -3.2411e-20)
(-0.0705195 -0.0026918 3.24033e-20)
(-0.0609882 -0.00245681 0)
(-0.0522316 -0.00221767 -3.23688e-20)
(-0.0442571 -0.00198058 0)
(-0.0370573 -0.00175052 0)
(-0.0306121 -0.00153179 3.22343e-20)
(-0.0248912 -0.00132688 0)
(-0.0198576 -0.0011372 -3.20737e-20)
(-0.0154686 -0.000963969 0)
(-0.0116782 -0.000807448 3.18525e-20)
(-0.00843978 -0.000667357 3.17198e-20)
(-0.00570608 -0.000543123 3.15731e-20)
(-0.00342963 -0.000434 6.28023e-20)
(-0.00156506 -0.00033907 -6.23275e-20)
(-6.88817e-05 -0.000256933 0)
(0.00110031 -0.000186466 0)
(0.0019804 -0.000126396 0)
(0.00260661 -7.55673e-05 -6.02421e-20)
(0.00301128 -3.30602e-05 -5.97626e-20)
(0.00322317 2.00366e-06 5.92932e-20)
(0.00326814 3.13767e-05 0)
(0.00317087 5.56137e-05 -5.83637e-20)
(0.00295328 7.52083e-05 -5.79043e-20)
(0.00263384 9.07758e-05 -5.7448e-20)
(0.00222949 0.000102914 0)
(0.00175549 0.000112097 0)
(0.00122538 0.000118748 0)
(0.000651229 0.000123233 -5.56261e-20)
(4.37044e-05 0.000125871 0)
(-0.000587723 0.000126932 0)
(-0.00123468 0.00012665 5.42376e-20)
(-0.00188978 0.000125229 0)
(-0.00254652 0.000122835 0)
(-0.00319922 0.000119617 5.27261e-20)
(-0.00384292 0.000115713 0)
(-0.00447335 0.000111249 0)
(-0.00508681 0.000106366 -5.1085e-20)
(-0.0056802 0.000101084 -5.05361e-20)
(-0.00625101 9.55318e-05 0)
(-0.00679716 8.97931e-05 4.94369e-20)
(-0.00731702 8.39343e-05 0)
(-0.00780942 7.80198e-05 -4.83368e-20)
(-0.00827356 7.2108e-05 0)
(-0.008709 6.62546e-05 -4.72371e-20)
(-0.00911562 6.05079e-05 -4.66876e-20)
(-0.0094936 5.49101e-05 0)
(-0.00984335 4.94975e-05 0)
(-0.0101655 4.4301e-05 0)
(-0.010461 3.9346e-05 0)
(-0.0107307 3.46485e-05 0)
(-0.0109758 3.02224e-05 0)
(-0.0111975 2.60764e-05 0)
(-0.0113971 2.22137e-05 -4.23141e-20)
(-0.0115758 1.86345e-05 4.17713e-20)
(-0.011735 1.53358e-05 0)
(-0.0118762 1.23119e-05 0)
(-0.0120005 9.55436e-06 0)
(-0.0121093 7.05252e-06 0)
(-0.012204 4.79366e-06 7.81481e-20)
(-0.0122856 2.7635e-06 0)
(-0.0123555 9.46396e-07 -7.6008e-20)
(-0.0124147 -6.74436e-07 7.49421e-20)
(-0.0124642 -2.11727e-06 0)
(-0.0125051 -3.40275e-06 0)
(-0.0125382 -4.55702e-06 0)
(-0.0125644 -5.62078e-06 -7.07079e-20)
(-0.0125845 -6.64924e-06 -6.9657e-20)
(-0.0125993 -7.52961e-06 0)
(-0.0126095 -8.10112e-06 -6.75649e-20)
(-0.0126154 -8.33454e-06 -6.65236e-20)
(-0.0126176 -8.59705e-06 6.54858e-20)
(-0.0126168 -8.7927e-06 0)
(-0.0126132 -8.97927e-06 0)
(-0.0126073 -9.14668e-06 6.23931e-20)
(-0.0125995 -9.27252e-06 0)
(-0.01259 -9.36831e-06 0)
(-0.0125791 -9.44261e-06 0)
(-0.0125669 -9.49618e-06 0)
(-0.0125539 -9.53038e-06 -5.73103e-20)
(-0.01254 -9.54679e-06 -5.63049e-20)
(-0.0125256 -9.54739e-06 0)
(-0.0125107 -9.5341e-06 -5.43054e-20)
(-0.0124956 -9.50885e-06 0)
(-0.0124803 -9.47339e-06 0)
(-0.012465 -9.42945e-06 -5.13351e-20)
(-0.0124499 -9.37865e-06 0)
(-0.0124351 -9.3228e-06 -4.93745e-20)
(-0.0124208 -9.26412e-06 0)
(-0.0124072 -9.20569e-06 0)
(-0.0123944 -9.15327e-06 -4.64638e-20)
(-0.0123828 -9.11322e-06 0)
(-0.0123725 -9.06381e-06 -4.45438e-20)
(-0.0123638 -9.02632e-06 0)
(-0.0123571 -9.03085e-06 0)
(-0.0123528 -9.0921e-06 0)
(-0.0123513 -9.14385e-06 4.07541e-20)
(-0.0123532 -9.3153e-06 0)
(-0.012359 -9.54233e-06 -3.88853e-20)
(-0.0123694 -9.66718e-06 0)
(-0.012385 -9.71466e-06 0)
(-0.0124061 -9.84544e-06 0)
(-0.0124334 -1.03206e-05 0)
(-0.0124662 -1.15642e-05 0)
(-0.0125054 -1.29058e-05 0)
(-0.0125368 -2.05694e-05 0)
(-0.0126007 -1.13736e-05 6.32217e-20)
(-0.0123696 -9.69718e-05 0)
(-0.0128253 -2.32366e-05 0)
(0.000217726 -0.00180565 6.32138e-20)
(0.00164947 -0.00432362 -8.00213e-20)
(0.00379546 -0.00585144 0)
(0.006345 -0.00657181 5.30351e-20)
(0.00896616 -0.00670447 0)
(0.0114492 -0.00644777 2.64054e-20)
(0.0136672 -0.00595547 -5.27279e-20)
(0.0155409 -0.00533293 -5.26866e-20)
(0.0170173 -0.00464262 0)
(0.0180557 -0.00391421 -5.27069e-20)
(0.0186181 -0.00315577 -2.63936e-20)
(0.0186624 -0.00236271 0)
(0.0181379 -0.00152681 0)
(0.0169874 -0.000637093 0)
(0.0151478 0.000316293 0)
(0.0125501 0.00134124 -2.67923e-20)
(0.00911936 0.0024435 0)
(0.00477668 0.00362917 5.41247e-20)
(-0.000561239 0.00490554 0)
(-0.00698345 0.00628156 0)
(-0.0145794 0.00776681 -5.29161e-20)
(-0.0234417 0.0093711 0)
(-0.0336621 0.011103 5.15112e-20)
(-0.0453285 0.0129686 -2.53717e-20)
(-0.0585197 0.0149695 2.49287e-20)
(-0.0732998 0.0171019 -2.44534e-20)
(-0.0897121 0.0193541 -2.39501e-20)
(-0.107773 0.0217063 0)
(-0.127465 0.0241289 0)
(-0.14873 0.0265822 2.23276e-20)
(-0.171465 0.0290172 -2.17305e-20)
(-0.195523 0.0313764 0)
(-0.220707 0.0335959 0)
(-0.246779 0.0356086 2.01405e-20)
(-0.273463 0.0373469 0)
(-0.30045 0.0387468 0)
(-0.32741 0.0397506 -1.86832e-20)
(-0.354003 0.0403104 0)
(-0.379886 0.0403901 1.78816e-20)
(-0.404723 0.0399669 -3.4968e-20)
(-0.428196 0.0390319 0)
(-0.45001 0.0375896 0)
(-0.469898 0.0356576 -6.63813e-20)
(-0.487628 0.0332645 -6.54043e-20)
(-0.503001 0.0304487 -6.45361e-20)
(-0.515856 0.0272559 3.1967e-20)
(-0.526068 0.0237374 -3.14667e-20)
(-0.533549 0.0199481 -9.37072e-20)
(-0.538242 0.0159456 6.20455e-20)
(-0.540121 0.0117907 3.07291e-20)
(-0.539195 0.00754994 0)
(-0.53549 0.00329507 -3.03351e-20)
(-0.529132 -0.000907228 3.0329e-20)
(-0.520224 -0.00499617 0)
(-0.508869 -0.00891317 0)
(-0.495203 -0.012608 0)
(-0.479383 -0.0160335 -2.9606e-20)
(-0.461588 -0.0191457 0)
(-0.442018 -0.0219061 5.92822e-20)
(-0.420889 -0.0242822 0)
(-0.398437 -0.0262492 5.95141e-20)
(-0.37491 -0.0277911 0)
(-0.350562 -0.0289016 -6.00752e-20)
(-0.325656 -0.0295845 0)
(-0.300451 -0.0298536 6.09581e-20)
(-0.275198 -0.0297323 -3.07953e-20)
(-0.250141 -0.0292522 0)
(-0.225505 -0.0284521 -6.28118e-20)
(-0.201495 -0.0273758 -3.17415e-20)
(-0.178295 -0.02607 -3.21275e-20)
(-0.15606 -0.024583 0)
(-0.134922 -0.0229624 -3.29709e-20)
(-0.114984 -0.0212534 -3.33303e-20)
(-0.096321 -0.0194981 0)
(-0.0789842 -0.017734 3.40998e-20)
(-0.0629999 -0.0159932 -6.89384e-20)
(-0.0483736 -0.0143025 0)
(-0.0350907 -0.0126853 -3.50747e-20)
(-0.023119 -0.0111558 0)
(-0.0124162 -0.00972349 1.06545e-19)
(-0.00292863 -0.00839528 0)
(0.00540599 -0.00717597 -1.04179e-19)
(0.0126602 -0.00606639 -3.42268e-20)
(0.0189068 -0.00506448 3.37959e-20)
(0.0242221 -0.00416654 6.67864e-20)
(0.0286821 -0.00336752 -6.6055e-20)
(0.0323618 -0.00266102 0)
(0.035334 -0.00204043 0)
(0.0376687 -0.00149873 0)
(0.039432 -0.00102895 1.90997e-19)
(0.0406865 -0.000624439 6.31653e-20)
(0.0414904 -0.000278993 -6.26942e-20)
(0.0418967 1.4148e-05 0)
(0.0419567 0.000263212 -6.17772e-20)
(0.0417169 0.000470454 6.1321e-20)
(0.0412187 0.000640779 6.08836e-20)
(0.0404999 0.000778755 0)
(0.0395955 0.000888279 0)
(0.0385371 0.000972822 0)
(0.0373534 0.0010355 5.9219e-20)
(0.0360703 0.00107907 0)
(0.0347109 0.00110603 -1.16803e-19)
(0.0332962 0.00111857 -1.73973e-19)
(0.0318449 0.00111867 1.15153e-19)
(0.0303734 0.00110808 0)
(0.0288967 0.00108838 5.67313e-20)
(0.0274275 0.00106102 0)
(0.0259771 0.00102729 1.1173e-19)
(0.0245554 0.000988406 -5.54186e-20)
(0.0231705 0.000945351 -5.49663e-20)
(0.0218294 0.000899132 0)
(0.0205377 0.000850627 -1.62121e-19)
(0.0193 0.000800618 1.07127e-19)
(0.0181196 0.000749806 5.30813e-20)
(0.016999 0.000698817 0)
(0.0159396 0.000648205 5.20907e-20)
(0.0149422 0.00059845 1.54751e-19)
(0.0140068 0.000549963 0)
(0.0131328 0.000503085 1.01102e-19)
(0.0123188 0.000458096 1.00051e-19)
(0.0115633 0.000415215 9.89881e-20)
(0.0108642 0.000374599 0)
(0.0102191 0.000336358 0)
(0.00962554 0.000300554 0)
(0.00908064 0.000267212 -4.73198e-20)
(0.00858155 0.000236321 -4.67677e-20)
(0.00812535 0.000207843 0)
(0.00770908 0.000181717 -9.13026e-20)
(0.00732981 0.000157862 -9.01792e-20)
(0.00698468 0.00013618 0)
(0.00667088 0.00011656 -8.79217e-20)
(0.00638572 9.88828e-05 -1.73575e-19)
(0.00612665 8.30223e-05 8.56523e-20)
(0.00589121 6.8849e-05 8.45136e-20)
(0.0056771 5.62322e-05 0)
(0.00548218 4.50406e-05 0)
(0.00530444 3.51406e-05 0)
(0.005142 2.63913e-05 7.99587e-20)
(0.00499317 1.86495e-05 -7.88191e-20)
(0.00485643 1.19254e-05 -1.55364e-19)
(0.00473029 6.26948e-06 7.65453e-20)
(0.00461337 1.6435e-06 -7.54091e-20)
(0.00450445 -2.36234e-06 -7.42759e-20)
(0.00440254 -5.74222e-06 0)
(0.00430662 -8.62547e-06 0)
(0.00421582 -1.10646e-05 7.08858e-20)
(0.00412935 -1.30875e-05 0)
(0.00404649 -1.47529e-05 0)
(0.00396659 -1.61058e-05 -1.35036e-19)
(0.00388909 -1.71802e-05 0)
(0.00381345 -1.80048e-05 -6.52859e-20)
(0.00373918 -1.8603e-05 6.41748e-20)
(0.00366582 -1.8994e-05 0)
(0.00359293 -1.91932e-05 -6.19606e-20)
(0.0035201 -1.92118e-05 0)
(0.00344691 -1.9057e-05 0)
(0.00337292 -1.87318e-05 5.86645e-20)
(0.00329771 -1.82346e-05 -1.15144e-19)
(0.00322079 -1.756e-05 5.64838e-20)
(0.00314164 -1.66977e-05 0)
(0.00305969 -1.56333e-05 0)
(0.00297427 -1.43478e-05 -5.32391e-20)
(0.00288462 -1.2819e-05 0)
(0.00278986 -1.09825e-05 -5.10948e-20)
(0.00268891 -8.81625e-06 0)
(0.00258053 -6.29775e-06 0)
(0.00246325 -3.37763e-06 0)
(0.0023353 9.33016e-08 -4.68546e-20)
(0.00219457 4.05997e-06 0)
(0.00203862 8.69259e-06 4.47598e-20)
(0.00186453 1.4192e-05 0)
(0.00166882 2.06037e-05 0)
(0.00144767 2.77707e-05 -8.33038e-20)
(0.00119636 3.53753e-05 8.12533e-20)
(0.000911872 4.24588e-05 0)
(0.000583684 4.93604e-05 0)
(0.000235829 4.4914e-05 0)
(-0.000254959 5.38989e-05 -2.19558e-19)
(-0.000238975 -6.56881e-05 0)
(-0.00230521 2.66359e-05 1.38492e-19)
(0.000209035 -0.0036356 -2.99703e-23)
(0.00144632 -0.00824067 1.06459e-19)
(0.00311812 -0.0107253 0)
(0.00490735 -0.0116357 -1.06003e-19)
(0.00651356 -0.011451 0)
(0.00776114 -0.0105518 0)
(0.00854607 -0.00921349 2.87797e-23)
(0.00879729 -0.00761337 5.31977e-20)
(0.00845497 -0.00584823 5.33445e-20)
(0.00745706 -0.00395654 5.36087e-20)
(0.00573395 -0.00194037 0)
(0.00320633 0.000220108 0)
(-0.000218158 0.00255051 -5.37216e-20)
(-0.00464244 0.00507408 -1.06632e-19)
(-0.0101762 0.00780998 1.05651e-19)
(-0.016935 0.0107736 0)
(-0.0250379 0.0139772 1.03158e-19)
(-0.0346058 0.0174312 -5.08619e-20)
(-0.0457582 0.0211446 0)
(-0.0586107 0.0251244 9.80801e-20)
(-0.0732698 0.0293732 4.80717e-20)
(-0.0898275 0.033887 -9.38981e-20)
(-0.108354 0.0386511 -4.58486e-20)
(-0.128889 0.0436366 0)
(-0.151433 0.048797 8.6822e-20)
(-0.175942 0.0540656 8.4363e-20)
(-0.202317 0.0593552 0)
(-0.230401 0.0645593 7.94876e-20)
(-0.259981 0.0695552 0)
(-0.290787 0.0742096 7.48702e-20)
(-0.322498 0.0783849 3.63296e-20)
(-0.354756 0.0819463 0)
(-0.38717 0.0847696 0)
(-0.419337 0.0867475 0)
(-0.45085 0.087795 0)
(-0.481313 0.0878534 0)
(-0.510353 0.0868917 0)
(-0.537631 0.0849073 6.17778e-20)
(-0.562843 0.0819241 -9.10808e-20)
(-0.585734 0.0779896 0)
(-0.606092 0.073172 0)
(-0.623751 0.067555 0)
(-0.638591 0.0612345 -3.24007e-22)
(-0.650532 0.0543137 5.7441e-20)
(-0.65953 0.0469002 1.14587e-19)
(-0.665576 0.0391019 -1.14123e-19)
(-0.668686 0.0310263 -5.70729e-20)
(-0.668899 0.0227785 5.66466e-20)
(-0.666275 0.0144623 3.33359e-22)
(-0.660882 0.00617826 5.68296e-20)
(-0.652838 -0.00197868 0)
(-0.64226 -0.00992435 5.62865e-20)
(-0.629205 -0.0175858 3.00043e-22)
(-0.613781 -0.0248971 0)
(-0.596109 -0.0317899 0)
(-0.576322 -0.0381956 -5.55239e-20)
(-0.554574 -0.044049 0)
(-0.531036 -0.0492894 0)
(-0.505897 -0.0538626 5.58339e-20)
(-0.479364 -0.0577234 1.11587e-19)
(-0.45166 -0.0608376 -5.58677e-20)
(-0.423021 -0.0631846 0)
(-0.393693 -0.0647585 5.66785e-20)
(-0.363926 -0.0655697 0)
(-0.33397 -0.0656446 5.80822e-20)
(-0.304069 -0.0650249 5.85616e-20)
(-0.274456 -0.0637661 -1.18906e-19)
(-0.245351 -0.0619347 -6.03991e-20)
(-0.216953 -0.0596061 0)
(-0.189442 -0.0568609 1.24539e-19)
(-0.162973 -0.053782 0)
(-0.137676 -0.0504518 1.93239e-19)
(-0.113658 -0.0469496 1.31104e-19)
(-0.0910019 -0.0433498 1.33372e-19)
(-0.0697658 -0.0397205 -1.35626e-19)
(-0.0499861 -0.0361213 2.06722e-19)
(-0.0316816 -0.0326041 0)
(-0.0148519 -0.029207 0)
(0.000518656 -0.0259602 -1.39613e-19)
(0.014458 -0.0228896 -2.05101e-19)
(0.0270118 -0.0200119 0)
(0.0382322 -0.017339 6.59465e-20)
(0.0481805 -0.0148767 0)
(0.0569234 -0.0126251 -1.9209e-19)
(0.0645323 -0.0105807 2.61768e-23)
(0.0710814 -0.00873672 -2.41381e-23)
(0.0766458 -0.00708408 1.2359e-19)
(0.0813008 -0.00561208 0)
(0.0851206 -0.004309 -1.21224e-19)
(0.0881778 -0.00316253 1.68823e-23)
(0.0905424 -0.00216029 0)
(0.0922813 -0.00129004 0)
(0.0934603 -0.000540008 0)
(0.0941382 0.000102845 1.16549e-19)
(0.0943707 0.000648343 0)
(0.0942135 0.00110545 0)
(0.0937162 0.00148363 0)
(0.092925 0.00179156 0)
(0.0918827 0.00203697 0)
(0.0906289 0.00222693 1.11601e-19)
(0.0892 0.00236785 0)
(0.0876294 0.00246557 1.10118e-19)
(0.0859475 0.0025254 1.09387e-19)
(0.084182 0.00255217 -1.08655e-19)
(0.0823578 0.00255028 0)
(0.0804973 0.00252374 -1.07179e-19)
(0.0786207 0.00247621 0)
(0.0767456 0.00241105 -1.05669e-19)
(0.0748875 0.00233133 1.04896e-19)
(0.0730599 0.00223982 3.12329e-19)
(0.0712741 0.00213906 0)
(0.0695397 0.00203138 3.07473e-19)
(0.0678645 0.00191885 1.01658e-19)
(0.0662547 0.00180333 0)
(0.0647149 0.00168648 1.99884e-19)
(0.0632487 0.00156976 1.9812e-19)
(0.0618579 0.00145444 -2.94487e-19)
(0.0605436 0.00134158 0)
(0.0593058 0.0012321 -9.63206e-20)
(0.0581438 0.00112672 -9.53779e-20)
(0.0570559 0.00102604 -2.83264e-19)
(0.0560399 0.000930471 0)
(0.0550934 0.000840328 0)
(0.0542131 0.000755796 0)
(0.0533959 0.000676958 -9.04768e-20)
(0.0526382 0.000603813 0)
(0.0519364 0.000536288 0)
(0.0512867 0.000474247 8.74194e-20)
(0.0506855 0.000417507 8.63853e-20)
(0.0501291 0.000365845 0)
(0.049614 0.000319007 0)
(0.0491365 0.00027672 1.665e-19)
(0.0486935 0.000238695 0)
(0.0482818 0.000204636 -1.62278e-19)
(0.0478983 0.00017425 -1.60157e-19)
(0.0475403 0.000147244 0)
(0.0472051 0.000123338 0)
(0.0468902 0.000102265 1.53777e-19)
(0.0465935 8.37834e-05 7.63876e-25)
(0.0463128 6.7628e-05 7.18236e-25)
(0.0460462 5.35369e-05 0)
(0.0457919 4.12919e-05 2.90497e-19)
(0.0455483 3.07631e-05 0)
(0.0453139 2.17342e-05 0)
(0.0450875 1.40353e-05 0)
(0.0448678 7.50886e-06 -1.36733e-19)
(0.0446537 2.01852e-06 0)
(0.0444443 -2.55602e-06 2.64977e-19)
(0.0442386 -6.31396e-06 1.30372e-19)
(0.0440358 -9.34362e-06 0)
(0.0438351 -1.1718e-05 1.26148e-19)
(0.0436359 -1.34967e-05 0)
(0.0434375 -1.47268e-05 0)
(0.0432392 -1.54438e-05 3.59528e-19)
(0.0430404 -1.56713e-05 -2.35499e-19)
(0.0428405 -1.54212e-05 0)
(0.0426388 -1.46931e-05 -2.27157e-19)
(0.0424347 -1.34737e-05 1.11501e-19)
(0.0422274 -1.17355e-05 0)
(0.0420162 -9.43588e-06 0)
(0.0418 -6.51504e-06 0)
(0.0415779 -2.89334e-06 3.09726e-19)
(0.0413485 1.53057e-06 0)
(0.0411106 6.8827e-06 9.91474e-20)
(0.0408624 1.33148e-05 0)
(0.0406018 2.10118e-05 0)
(0.0403263 3.02013e-05 0)
(0.0400331 4.1133e-05 0)
(0.0397185 5.41215e-05 0)