/*--------------------------------*- C++ -*----------------------------------*\
  =========                 |
  \\      /  F ield         | OpenFOAM: The Open Source CFD Toolbox
   \\    /   O peration     | Website:  https://openfoam.org
    \\  /    A nd           | Version:  8
     \\/     M anipulation  |
\*---------------------------------------------------------------------------*/
FoamFile
{
    version     2.0;
    format      ascii;
    class       volScalarField;
    location    "0.82";
    object      p;
}
// * * * * * * * * * * * * * * * * * * * * * * * * * * * * * * * * * * * * * //

dimensions      [0 2 -2 0 0 0 0];

internalField   nonuniform List<scalar> 
12225
(
-0.00248686
-0.00245884
-0.00243131
-0.00241017
-0.00240057
-0.0024048
-0.00242491
-0.00246286
-0.00252092
-0.00260202
-0.00271037
-0.00285257
-0.00303965
-0.00329143
-0.00364476
-0.0041693
-0.00506274
-0.00712628
-0.00248661
-0.00246157
-0.00243687
-0.00241828
-0.00241099
-0.00241738
-0.00243955
-0.00247949
-0.00253947
-0.00262242
-0.00273247
-0.002876
-0.00306339
-0.00331245
-0.00365378
-0.00414034
-0.00487599
-0.00626373
-0.00248746
-0.00246513
-0.00244356
-0.00242788
-0.00242326
-0.00243213
-0.00245663
-0.00249875
-0.00256074
-0.00264543
-0.00275674
-0.00290057
-0.00308603
-0.00332767
-0.00364763
-0.00407687
-0.00463166
-0.00550075
-0.00248967
-0.00246913
-0.00245018
-0.00243716
-0.002435
-0.00244612
-0.00247267
-0.0025166
-0.00258006
-0.00266568
-0.00277699
-0.00291903
-0.00309909
-0.00332764
-0.0036178
-0.00398164
-0.00439424
-0.00493987
-0.0024931
-0.00247356
-0.00245672
-0.00244606
-0.00244611
-0.00245923
-0.00248752
-0.00253284
-0.00259717
-0.00268284
-0.0027928
-0.00293095
-0.00310241
-0.00331332
-0.00356879
-0.00386757
-0.00417222
-0.00451212
-0.00249755
-0.00247839
-0.00246322
-0.00245465
-0.00245669
-0.00247158
-0.0025013
-0.00254758
-0.00261218
-0.00269702
-0.00280431
-0.00293669
-0.00309693
-0.00328722
-0.00350639
-0.00374498
-0.00396552
-0.00417063
-0.00250277
-0.00248353
-0.0024696
-0.00246285
-0.00246662
-0.00248301
-0.00251382
-0.00256061
-0.00262484
-0.00270796
-0.00281137
-0.00293633
-0.00308344
-0.00325158
-0.00343529
-0.00362103
-0.00377662
-0.00389514
-0.00250847
-0.0024888
-0.00247571
-0.00247049
-0.00247571
-0.00249328
-0.00252481
-0.00257162
-0.00263484
-0.00271538
-0.0028138
-0.00293006
-0.00306288
-0.00320866
-0.00335947
-0.00350081
-0.00360766
-0.00367254
-0.00251425
-0.00249395
-0.00248135
-0.00247736
-0.00248375
-0.00250218
-0.00253402
-0.00258034
-0.00264192
-0.0027191
-0.00281165
-0.00291835
-0.00303646
-0.00316076
-0.00328237
-0.00338782
-0.00345915
-0.00349172
-0.00251964
-0.00249865
-0.00248629
-0.00248326
-0.00249052
-0.00250946
-0.00254121
-0.00258656
-0.00264591
-0.00271909
-0.00280512
-0.00290186
-0.00300552
-0.00311009
-0.00320675
-0.00328414
-0.00333027
-0.00334379
-0.00252412
-0.00250249
-0.00249025
-0.00248794
-0.00249578
-0.00251489
-0.00254615
-0.00259007
-0.0026467
-0.00271538
-0.00279454
-0.00288135
-0.00297141
-0.00305848
-0.00313451
-0.00319051
-0.00321907
-0.00322159
-0.00252689
-0.00250482
-0.00249265
-0.00249082
-0.00249895
-0.00251792
-0.00254838
-0.00259061
-0.00264437
-0.00270866
-0.00278148
-0.00285958
-0.00293831
-0.0030116
-0.00307233
-0.00311349
-0.00313061
-0.00312703
-0.0025278
-0.00250604
-0.00249394
-0.00249249
-0.00250077
-0.00251938
-0.00254879
-0.00258905
-0.00263969
-0.00269941
-0.00276591
-0.00283575
-0.00290427
-0.00296583
-0.00301438
-0.00304462
-0.00305417
-0.00304642
-0.00252598
-0.00250536
-0.00249356
-0.00249248
-0.00250076
-0.0025187
-0.00254657
-0.00258426
-0.00263106
-0.00268545
-0.00274497
-0.00280612
-0.00286447
-0.00291501
-0.0029528
-0.00297408
-0.00297783
-0.00296697
-0.00251953
-0.00250107
-0.00249021
-0.00248956
-0.00249766
-0.00251452
-0.00254028
-0.00257468
-0.00261687
-0.00266523
-0.00271727
-0.00276963
-0.00281828
-0.00285891
-0.00288761
-0.00290173
-0.00290086
-0.00288724
-0.00250573
-0.0024909
-0.00248207
-0.00248211
-0.00248984
-0.00250513
-0.00252805
-0.00255831
-0.00259504
-0.00263664
-0.00268077
-0.00272436
-0.00276387
-0.00279565
-0.00281658
-0.0028247
-0.00281954
-0.00280252
-0.00248139
-0.00247207
-0.00246685
-0.00246808
-0.00247525
-0.00248838
-0.00250757
-0.00253261
-0.00256274
-0.00259657
-0.00263202
-0.00266642
-0.00269674
-0.00271991
-0.00273327
-0.00273508
-0.00272457
-0.00270226
-0.00244388
-0.00244218
-0.0024423
-0.00244529
-0.00245161
-0.00246172
-0.00247593
-0.00249419
-0.00251598
-0.0025402
-0.00256516
-0.00258862
-0.00260802
-0.00262072
-0.00262437
-0.0026172
-0.00259804
-0.00256663
-0.00239453
-0.0024018
-0.00240808
-0.00241265
-0.0024171
-0.00242253
-0.00242952
-0.0024383
-0.00244865
-0.00245988
-0.00247075
-0.00247952
-0.00248412
-0.0024823
-0.00247196
-0.00245122
-0.00241837
-0.00237272
-0.00235767
-0.00237204
-0.00238286
-0.00238802
-0.00238989
-0.00238985
-0.00238855
-0.00238627
-0.002383
-0.00237832
-0.00237141
-0.00236106
-0.00234578
-0.00232394
-0.002294
-0.00225451
-0.00220392
-0.00214111
-0.00233981
-0.00235774
-0.00237064
-0.00237581
-0.00237588
-0.00237212
-0.00236502
-0.00235481
-0.00234146
-0.00232469
-0.00230388
-0.00227819
-0.00224654
-0.00220776
-0.00216075
-0.00210449
-0.00203782
-0.00195988
-0.00233493
-0.00235413
-0.00236774
-0.00237294
-0.0023721
-0.00236607
-0.00235507
-0.00233915
-0.00231819
-0.00229187
-0.00225973
-0.00222111
-0.00217528
-0.00212144
-0.0020589
-0.0019871
-0.00190534
-0.00181307
-0.00233864
-0.0023576
-0.00237124
-0.00237684
-0.00237608
-0.00236924
-0.00235622
-0.00233684
-0.00231082
-0.00227779
-0.00223728
-0.00218878
-0.00213174
-0.00206569
-0.00199024
-0.00190523
-0.00181045
-0.00170576
-0.00234684
-0.00236481
-0.00237842
-0.002385
-0.00238525
-0.00237886
-0.00236542
-0.00234451
-0.0023157
-0.0022785
-0.0022324
-0.00217692
-0.00211165
-0.00203628
-0.00195068
-0.00185496
-0.00174934
-0.00163412
-0.00235641
-0.00237329
-0.00238725
-0.00239544
-0.00239746
-0.00239247
-0.00237982
-0.00235888
-0.00232905
-0.00228971
-0.0022403
-0.0021803
-0.00210935
-0.00202723
-0.00193397
-0.00182985
-0.00171541
-0.00159139
-0.00236527
-0.00238148
-0.00239643
-0.00240681
-0.00241114
-0.00240821
-0.00239715
-0.00237721
-0.00234763
-0.00230768
-0.00225669
-0.00219408
-0.00211947
-0.00203268
-0.00193381
-0.00182324
-0.00170171
-0.00157032
-0.00237225
-0.00238855
-0.00240527
-0.0024183
-0.00242528
-0.0024248
-0.00241585
-0.00239757
-0.0023691
-0.0023296
-0.00227828
-0.00221448
-0.00213774
-0.00204787
-0.00194498
-0.00182951
-0.00170228
-0.00156466
-0.00237679
-0.00239425
-0.00241356
-0.00242961
-0.0024395
-0.00244169
-0.00243517
-0.00241899
-0.00239224
-0.00235394
-0.00230319
-0.00223924
-0.00216151
-0.00206976
-0.00196406
-0.00184486
-0.00171299
-0.00156995
-0.00237877
-0.00239862
-0.00242123
-0.00244056
-0.00245346
-0.00245845
-0.00245452
-0.00244073
-0.00241608
-0.00237951
-0.00232999
-0.00226664
-0.00218878
-0.00209605
-0.00198846
-0.00186643
-0.00173075
-0.00158297
-0.00237882
-0.00240152
-0.00242714
-0.00244922
-0.0024646
-0.00247188
-0.00247011
-0.00245836
-0.00243558
-0.00240063
-0.0023524
-0.00228987
-0.00221227
-0.00211915
-0.00201045
-0.00188652
-0.00174815
-0.00159684
0.000539369
0.000550835
0.000552591
0.000537049
0.000503868
0.000453976
0.0003884
0.000308316
0.000214996
0.000109717
-6.39514e-06
-0.000132353
-0.000267331
-0.000410658
-0.000561785
-0.000720245
-0.000885599
-0.00105738
-0.00123502
-0.00141783
-0.0016049
-0.00179505
-0.00198682
-0.0021784
-0.00236762
-0.0025519
-0.00272827
-0.0028934
-0.00304356
-0.00317468
-0.00328244
-0.0033623
-0.00340959
-0.00341966
-0.00338796
-0.0033102
-0.00318251
-0.00300159
-0.00276487
-0.00247064
-0.00211821
-0.00170801
-0.00124169
-0.000722156
-0.000153568
0.000458863
0.0011083
0.00178713
0.00248677
0.00319784
0.00391042
0.0046143
0.0052992
0.00595498
0.00657188
0.00714072
0.00765305
0.00810128
0.00847882
0.00878008
0.00900055
0.00913678
0.00918635
0.00914798
0.00902134
0.00880703
0.0085068
0.00812341
0.00766071
0.00712363
0.00651832
0.00585212
0.00513366
0.00437286
0.00358083
0.00276981
0.00195296
0.00114405
0.000357099
-0.000394177
-0.00109641
-0.00173801
-0.00230885
-0.00280103
-0.00320928
-0.00353124
-0.00376747
-0.00392143
-0.00399911
-0.00400865
-0.00395969
-0.00386283
-0.0037289
-0.00356844
-0.00339121
-0.00320585
-0.00301976
-0.00283902
-0.00266846
-0.00251176
-0.00237157
-0.00224954
-0.00214637
-0.00206185
-0.00199488
-0.00194367
-0.00190584
-0.00187869
-0.0018594
-0.0018453
-0.00183397
-0.00182338
-0.00181189
-0.00179834
-0.00178191
-0.00176217
-0.00173899
-0.00171248
-0.00168297
-0.00165092
-0.00161692
-0.00158153
-0.00154549
-0.00150941
-0.00147387
-0.00143941
-0.00140647
-0.00137539
-0.00134642
-0.00131971
-0.00129533
-0.00127327
-0.00125344
-0.00123571
-0.00121991
-0.00120583
-0.00119326
-0.00118197
-0.00117174
-0.00116235
-0.0011536
-0.0011453
-0.00113729
-0.0011294
-0.00112151
-0.00111351
-0.00110529
-0.00109678
-0.00108791
-0.00107863
-0.00106889
-0.00105867
-0.00104796
-0.00103674
-0.00102498
-0.00101271
-0.00099992
-0.00098663
-0.000972845
-0.000958579
-0.000943843
-0.000928647
-0.000912999
-0.000896899
-0.000880338
-0.0008633
-0.000845753
-0.000827652
-0.00080894
-0.000789543
-0.000769382
-0.000748365
-0.000726405
-0.00070346
-0.000679491
-0.000654529
-0.000628679
-0.000602401
-0.000577819
-0.000544223
0.000551591
0.000562542
0.000563854
0.000548934
0.000518437
0.000473657
0.000415557
0.000345049
0.000263083
0.000170553
6.83057e-05
-4.29477e-05
-0.000162621
-0.000290242
-0.000425425
-0.000567844
-0.000717189
-0.000873119
-0.00103521
-0.00120292
-0.00137549
-0.00155197
-0.00173111
-0.00191134
-0.00209076
-0.0022671
-0.00243768
-0.00259945
-0.00274896
-0.00288241
-0.00299566
-0.00308433
-0.00314384
-0.00316956
-0.00315687
-0.00310134
-0.00299886
-0.00284582
-0.00263928
-0.00237711
-0.00205813
-0.00168229
-0.00125073
-0.000765869
-0.000231298
0.000347945
0.000965811
0.00161486
0.00228669
0.00297214
0.00366144
0.00434446
0.00501094
0.00565074
0.00625405
0.00681161
0.00731486
0.00775613
0.0081287
0.00842687
0.00864604
0.00878265
0.00883418
0.00879911
0.00867706
0.00846877
0.0081761
0.00780188
0.00734999
0.00682549
0.00623459
0.00558479
0.00488485
0.00414477
0.00337579
0.00259021
0.00180115
0.00102229
0.000267411
-0.000450076
-0.00111682
-0.00172254
-0.00225774
-0.00271539
-0.00309119
-0.00338377
-0.00359468
-0.00372817
-0.00379086
-0.00379125
-0.00373903
-0.00364453
-0.00351804
-0.0033693
-0.00320712
-0.00303913
-0.0028717
-0.00270994
-0.00255783
-0.00241837
-0.00229367
-0.00218505
-0.00209306
-0.00201748
-0.0019574
-0.00191128
-0.00187709
-0.0018525
-0.00183509
-0.00182248
-0.00181253
-0.00180337
-0.00179351
-0.00178181
-0.00176747
-0.00175002
-0.00172925
-0.00170522
-0.00167817
-0.00164849
-0.00161669
-0.00158338
-0.00154914
-0.00151459
-0.00148032
-0.00144684
-0.00141461
-0.00138399
-0.00135524
-0.00132855
-0.00130402
-0.00128165
-0.00126141
-0.00124317
-0.00122681
-0.00121213
-0.00119894
-0.00118704
-0.0011762
-0.00116624
-0.00115694
-0.00114814
-0.00113965
-0.00113134
-0.00112308
-0.00111473
-0.00110622
-0.00109745
-0.00108836
-0.00107889
-0.00106899
-0.00105864
-0.00104781
-0.00103649
-0.00102467
-0.00101235
-0.000999522
-0.000986204
-0.000972401
-0.000958122
-0.000943378
-0.000928178
-0.000912526
-0.000896423
-0.000879861
-0.000862822
-0.000845279
-0.000827191
-0.000808504
-0.000789154
-0.00076907
-0.000748179
-0.000726422
-0.00070374
-0.000680132
-0.000655661
-0.000630474
-0.000605093
-0.00058158
-0.000549466
0.000640105
0.000644218
0.000638798
0.000619219
0.000586574
0.000542213
0.000487021
0.000421725
0.000347016
0.000263523
0.000171768
7.21558e-05
-3.50249e-05
-0.000149587
-0.000271426
-0.000400482
-0.000536714
-0.000680048
-0.000830331
-0.00098729
-0.00115047
-0.0013192
-0.00149254
-0.00166921
-0.0018476
-0.00202569
-0.00220105
-0.00237079
-0.00253159
-0.00267968
-0.00281091
-0.00292074
-0.0030044
-0.00305691
-0.00307327
-0.0030486
-0.00297827
-0.00285813
-0.00268467
-0.00245522
-0.0021681
-0.00182282
-0.00142012
-0.000962052
-0.000451923
0.000105365
0.000703616
0.0013354
0.00199226
0.00266487
0.00334329
0.00401718
0.00467607
0.00530962
0.00590783
0.0064613
0.00696135
0.00740022
0.00777113
0.00806839
0.00828739
0.00842463
0.00847763
0.0084449
0.00832604
0.0081218
0.00783411
0.00746583
0.00702087
0.0065043
0.00592242
0.0052828
0.00459434
0.00386722
0.00311291
0.00234394
0.00157373
0.000816214
8.55115e-05
-0.000604542
-0.00124219
-0.00181553
-0.00231596
-0.00273723
-0.00307592
-0.00333176
-0.00350753
-0.00360883
-0.00364353
-0.00362122
-0.00355238
-0.00344775
-0.00331759
-0.00317124
-0.00301671
-0.00286059
-0.00270805
-0.00256299
-0.00242827
-0.00230591
-0.00219726
-0.00210311
-0.0020237
-0.00195871
-0.00190729
-0.00186808
-0.00183933
-0.00181903
-0.00180505
-0.00179532
-0.00178793
-0.00178121
-0.00177379
-0.00176459
-0.00175284
-0.00173804
-0.00171996
-0.00169859
-0.00167411
-0.00164687
-0.00161732
-0.00158602
-0.00155354
-0.00152047
-0.00148741
-0.00145486
-0.00142329
-0.00139308
-0.00136453
-0.00133783
-0.00131312
-0.00129044
-0.00126977
-0.00125102
-0.00123408
-0.0012188
-0.00120498
-0.00119245
-0.001181
-0.00117044
-0.00116059
-0.00115126
-0.00114229
-0.00113354
-0.00112487
-0.00111617
-0.00110733
-0.00109829
-0.00108895
-0.00107927
-0.0010692
-0.0010587
-0.00104775
-0.00103633
-0.00102443
-0.00101204
-0.000999167
-0.000985812
-0.000971981
-0.000957684
-0.000942927
-0.000927718
-0.00091206
-0.000895953
-0.00087939
-0.000862354
-0.000844821
-0.000826753
-0.000808105
-0.000788822
-0.000768841
-0.000748105
-0.000726564
-0.000704186
-0.000680987
-0.000657056
-0.000632569
-0.000608055
-0.000585773
-0.000554494
0.000806151
0.000796247
0.000776956
0.000747254
0.000707835
0.000659489
0.000602828
0.00053836
0.000466498
0.000387541
0.000301666
0.000208922
0.000109234
2.41438e-06
-0.00011181
-0.00023377
-0.000363816
-0.000502274
-0.000649392
-0.00080529
-0.000969901
-0.00114291
-0.0013237
-0.00151127
-0.00170423
-0.00190067
-0.00209819
-0.00229383
-0.00248406
-0.00266478
-0.00283138
-0.00297877
-0.00310151
-0.0031939
-0.00325016
-0.00326461
-0.00323187
-0.00314708
-0.00300611
-0.00280575
-0.00254396
-0.00222001
-0.00183449
-0.00138928
-0.00088799
-0.00033591
0.000260365
0.000892987
0.001553
0.00223057
0.00291522
0.00359613
0.00426236
0.00490319
0.0055083
0.00606807
0.00657368
0.00701731
0.00739224
0.00769284
0.00791467
0.00805438
0.00810968
0.00807932
0.007963
0.00776146
0.00747655
0.00711112
0.00666902
0.00615522
0.00557595
0.00493878
0.00425264
0.00352789
0.00277622
0.00201058
0.00124489
0.000493712
-0.000228213
-0.000906505
-0.00152783
-0.0020804
-0.00255517
-0.00294583
-0.00324928
-0.00346598
-0.00359988
-0.00365811
-0.00365039
-0.00358819
-0.00348381
-0.00334949
-0.00319651
-0.00303464
-0.00287176
-0.00271378
-0.00256481
-0.00242745
-0.00230324
-0.00219295
-0.0020969
-0.00201509
-0.00194723
-0.00189268
-0.00185045
-0.00181919
-0.00179724
-0.00178271
-0.00177365
-0.00176818
-0.00176453
-0.00176119
-0.00175689
-0.00175061
-0.00174163
-0.00172947
-0.00171388
-0.00169483
-0.0016725
-0.00164719
-0.00161937
-0.00158956
-0.00155833
-0.0015263
-0.00149403
-0.00146208
-0.0014309
-0.00140091
-0.00137242
-0.00134564
-0.00132074
-0.00129777
-0.00127674
-0.00125757
-0.00124017
-0.0012244
-0.00121009
-0.00119706
-0.00118512
-0.00117409
-0.00116378
-0.00115403
-0.00114466
-0.00113555
-0.00112654
-0.00111754
-0.00110844
-0.00109916
-0.00108961
-0.00107975
-0.00106952
-0.00105888
-0.00104782
-0.0010363
-0.00102432
-0.00101187
-0.000998946
-0.00098555
-0.000971688
-0.000957367
-0.000942593
-0.000927371
-0.000911705
-0.000895594
-0.000879031
-0.000862003
-0.000844485
-0.000826448
-0.000807849
-0.000788643
-0.000768775
-0.000748199
-0.000726874
-0.000704784
-0.000681959
-0.000658501
-0.000634589
-0.000610723
-0.000589077
-0.000558867
0.00102893
0.000999691
0.000961056
0.000917008
0.000867418
0.000812066
0.000751047
0.000684451
0.000612253
0.000534299
0.00045031
0.00035988
0.000262471
0.000157431
4.40089e-05
-7.86096e-05
-0.000211264
-0.000354767
-0.000509846
-0.000677071
-0.000856788
-0.00104903
-0.00125345
-0.00146921
-0.00169494
-0.00192864
-0.00216764
-0.00240853
-0.00264719
-0.0028788
-0.00309786
-0.00329834
-0.00347378
-0.00361743
-0.00372253
-0.00378245
-0.00379098
-0.00374257
-0.00363254
-0.00345737
-0.00321482
-0.00290412
-0.0025259
-0.0020825
-0.00157821
-0.0010188
-0.000411509
0.000235119
0.000911385
0.00160671
0.00230989
0.00300944
0.00369384
0.00435187
0.00497283
0.00554682
0.00606491
0.00651928
0.00690327
0.00721146
0.00743961
0.00758466
0.00764458
0.0076183
0.0075057
0.00730759
0.00702576
0.00666301
0.00622304
0.00571061
0.00513178
0.00449393
0.00380595
0.00307822
0.00232267
0.00155264
0.000782634
2.80065e-05
-0.000695537
-0.00137254
-0.00198844
-0.00253026
-0.0029877
-0.00335376
-0.00362499
-0.00380196
-0.00388935
-0.00389569
-0.00383267
-0.00371423
-0.00355533
-0.00337078
-0.00317407
-0.00297653
-0.00278679
-0.00261075
-0.00245177
-0.00231124
-0.00218917
-0.00208483
-0.00199714
-0.00192495
-0.00186713
-0.00182244
-0.00178953
-0.00176681
-0.00175256
-0.00174488
-0.00174188
-0.00174173
-0.00174278
-0.00174359
-0.00174298
-0.00174001
-0.00173398
-0.00172445
-0.00171119
-0.00169419
-0.00167363
-0.00164983
-0.00162325
-0.00159445
-0.00156401
-0.00153256
-0.00150071
-0.001469
-0.00143794
-0.00140795
-0.00137936
-0.0013524
-0.00132726
-0.00130399
-0.00128261
-0.00126308
-0.0012453
-0.00122913
-0.00121442
-0.00120099
-0.00118866
-0.00117725
-0.00116658
-0.00115649
-0.0011468
-0.00113739
-0.00112812
-0.00111886
-0.00110954
-0.00110005
-0.00109032
-0.0010803
-0.00106993
-0.00105917
-0.001048
-0.00103639
-0.00102434
-0.00101182
-0.000998844
-0.000985405
-0.000971508
-0.000957159
-0.000942363
-0.000927126
-0.00091145
-0.000895334
-0.000878773
-0.000861755
-0.00084426
-0.000826261
-0.000807722
-0.000788602
-0.000768858
-0.000748447
-0.00072734
-0.00070553
-0.000683051
-0.000660011
-0.000636578
-0.0006132
-0.000591744
-0.000563023
0.00128448
0.00123305
0.00117211
0.00111138
0.0010497
0.000985506
0.000918096
0.000846946
0.000771418
0.000690754
0.000604088
0.000510443
0.000408726
0.000297726
0.000176142
4.26071e-05
-0.00010426
-0.000265793
-0.000443203
-0.000637485
-0.000849321
-0.00107897
-0.00132616
-0.00158999
-0.0018688
-0.00216014
-0.00246067
-0.00276616
-0.00307147
-0.00337066
-0.00365703
-0.00392329
-0.00416174
-0.00436452
-0.00452377
-0.00463199
-0.00468223
-0.00466841
-0.00458553
-0.00442992
-0.00419941
-0.0038934
-0.00351298
-0.00306125
-0.00254316
-0.00196522
-0.00133546
-0.000663336
4.05531e-05
0.00076473
0.00149715
0.00222551
0.00293762
0.00362165
0.00426649
0.00486196
0.00539897
0.00586972
0.0062677
0.00658774
0.00682592
0.00697952
0.00704688
0.00702717
0.00692051
0.00672779
0.00645074
0.00609205
0.00565521
0.00514469
0.00456624
0.00392695
0.00323552
0.00250228
0.00173927
0.000960172
0.000180071
-0.000584843
-0.00131778
-0.00200199
-0.00262146
-0.00316161
-0.00361045
-0.00395939
-0.00420388
-0.0043439
-0.00438415
-0.004334
-0.00420687
-0.00401921
-0.00378916
-0.00353498
-0.00327352
-0.00301893
-0.00278183
-0.00256907
-0.00238394
-0.00222691
-0.00209651
-0.00199023
-0.00190524
-0.00183885
-0.00178866
-0.00175252
-0.00172838
-0.00171422
-0.00170805
-0.00170782
-0.00171156
-0.00171743
-0.00172381
-0.00172931
-0.00173278
-0.00173334
-0.00173034
-0.00172338
-0.00171226
-0.00169701
-0.00167783
-0.0016551
-0.00162931
-0.00160104
-0.00157094
-0.00153965
-0.00150781
-0.00147602
-0.00144479
-0.00141456
-0.00138569
-0.00135844
-0.00133296
-0.00130936
-0.00128764
-0.00126777
-0.00124964
-0.00123314
-0.0012181
-0.00120435
-0.00119171
-0.00118
-0.00116905
-0.00115868
-0.00114874
-0.00113909
-0.00112959
-0.00112014
-0.00111062
-0.00110096
-0.00109108
-0.00108091
-0.00107042
-0.00105955
-0.00104828
-0.00103659
-0.00102446
-0.00101188
-0.000998847
-0.000985362
-0.000971427
-0.000957047
-0.000942226
-0.00092697
-0.000911281
-0.00089516
-0.000878602
-0.000861597
-0.00084413
-0.000826176
-0.000807705
-0.000788683
-0.000769071
-0.000748835
-0.000727952
-0.000706418
-0.00068427
-0.000661609
-0.000638594
-0.000615603
-0.000594098
-0.000567158
0.00154609
0.00147115
0.0013869
0.00130885
0.00123447
0.00116053
0.00108533
0.00100753
0.000925696
0.00083831
0.000743794
0.000640495
0.000526674
0.000400499
0.000260068
0.00010344
-7.13053e-05
-0.000265983
-0.000482204
-0.000721256
-0.000983972
-0.00127059
-0.00158063
-0.00191275
-0.00226465
-0.00263302
-0.00301346
-0.00340052
-0.00378775
-0.00416781
-0.0045326
-0.00487349
-0.00518154
-0.00544774
-0.00566334
-0.00582006
-0.00591044
-0.00592805
-0.00586777
-0.00572597
-0.00550067
-0.00519165
-0.00480081
-0.00433197
-0.00379073
-0.00318444
-0.00252211
-0.00181417
-0.00107227
-0.000308891
0.00046293
0.00122999
0.00197926
0.00269826
0.00337535
0.00399998
0.00456292
0.00505636
0.00547396
0.00581085
0.00606348
0.00622957
0.00630786
0.00629795
0.00620014
0.00601544
0.00574561
0.00539313
0.00496125
0.00445411
0.00387702
0.00323674
0.00254166
0.00180194
0.00102968
0.000238811
-0.00055505
-0.0013349
-0.00208286
-0.0027808
-0.00341112
-0.00395755
-0.0044061
-0.00474612
-0.00497125
-0.00508013
-0.00507673
-0.00497046
-0.00477576
-0.00451122
-0.00419813
-0.00385863
-0.00351381
-0.00318183
-0.00287664
-0.0026073
-0.00237805
-0.00218911
-0.00203778
-0.00191975
-0.00183017
-0.00176438
-0.0017183
-0.00168844
-0.00167175
-0.0016655
-0.00166717
-0.00167444
-0.00168514
-0.00169732
-0.00170931
-0.00171971
-0.0017274
-0.00173152
-0.00173146
-0.00172686
-0.00171757
-0.00170368
-0.00168545
-0.0016633
-0.00163778
-0.00160955
-0.00157929
-0.00154771
-0.00151549
-0.00148326
-0.00145156
-0.00142087
-0.00139154
-0.00136384
-0.00133796
-0.00131397
-0.0012919
-0.0012717
-0.00125327
-0.00123648
-0.00122117
-0.00120717
-0.0011943
-0.00118236
-0.00117119
-0.00116062
-0.00115049
-0.00114065
-0.00113098
-0.00112136
-0.0011117
-0.00110189
-0.00109188
-0.00108159
-0.00107098
-0.00106002
-0.00104866
-0.00103688
-0.00102468
-0.00101204
-0.000998951
-0.000985418
-0.000971442
-0.000957027
-0.000942178
-0.0009269
-0.000911196
-0.000895068
-0.000878513
-0.000861524
-0.000844088
-0.000826186
-0.000807791
-0.000788875
-0.000769405
-0.000749352
-0.000728696
-0.000707435
-0.000685605
-0.000663295
-0.000640648
-0.000617974
-0.000596287
-0.000571273
0.00178301
0.00168574
0.0015792
0.00148458
0.00139782
0.00131389
0.00122986
0.00114341
0.00105215
0.000953679
0.000845608
0.000725527
0.000590994
0.000439524
0.00026861
7.5768e-05
-0.000141388
-0.000385037
-0.00065702
-0.000958693
-0.00129076
-0.00165312
-0.00204472
-0.00246341
-0.00290588
-0.00336759
-0.0038428
-0.0043246
-0.00480504
-0.00527529
-0.00572586
-0.00614683
-0.00652811
-0.00685976
-0.00713225
-0.00733673
-0.00746536
-0.00751153
-0.00747009
-0.00733751
-0.0071121
-0.00679431
-0.00638655
-0.00589331
-0.00532096
-0.00467778
-0.00397379
-0.00322053
-0.00243075
-0.00161809
-0.000796701
1.91529e-05
0.000815496
0.00157902
0.00229744
0.00295977
0.00355653
0.00407988
0.00452363
0.00488323
0.00515557
0.00533883
0.00543225
0.00543588
0.00535034
0.00517682
0.00491707
0.00457339
0.00414875
0.00364693
0.00307278
0.00243263
0.00173451
0.000988386
0.000206302
-0.000597595
-0.0014072
-0.00220476
-0.00297133
-0.00368744
-0.00433386
-0.00489253
-0.00534741
-0.00568596
-0.00589927
-0.00598416
-0.00594319
-0.00578498
-0.00552418
-0.00518075
-0.0047786
-0.00434366
-0.0039016
-0.00347546
-0.00308369
-0.0027389
-0.00244753
-0.00221048
-0.00202445
-0.00188353
-0.00178073
-0.00170914
-0.0016626
-0.00163586
-0.00162451
-0.0016248
-0.00163347
-0.00164775
-0.00166513
-0.00168346
-0.00170095
-0.00171615
-0.0017279
-0.00173536
-0.00173795
-0.00173534
-0.00172746
-0.00171445
-0.00169663
-0.00167451
-0.00164873
-0.00162001
-0.00158911
-0.00155679
-0.00152379
-0.00149077
-0.00145832
-0.00142692
-0.00139696
-0.0013687
-0.00134232
-0.0013179
-0.00129547
-0.00127495
-0.00125625
-0.00123922
-0.0012237
-0.00120951
-0.00119647
-0.00118437
-0.00117306
-0.00116234
-0.00115207
-0.0011421
-0.0011323
-0.00112256
-0.00111277
-0.00110285
-0.00109272
-0.00108233
-0.00107163
-0.00106057
-0.00104913
-0.00103728
-0.00102501
-0.0010123
-0.000999157
-0.000985573
-0.000971553
-0.000957099
-0.000942218
-0.000926914
-0.000911193
-0.000895057
-0.000878505
-0.000861533
-0.000844132
-0.000826285
-0.000807973
-0.00078917
-0.000769848
-0.000749983
-0.000729555
-0.000708564
-0.000687037
-0.00066505
-0.000642729
-0.000620314
-0.000598368
-0.000575306
0.0019654
0.00184815
0.00172176
0.00161232
0.00151416
0.00142031
0.00132652
0.00122935
0.00112537
0.00101121
0.000883601
0.000739341
0.000575268
0.000388259
0.000175247
-6.67074e-05
-0.000340321
-0.000647953
-0.000991443
-0.00137193
-0.00178969
-0.00224394
-0.00273271
-0.00325272
-0.00379937
-0.00436668
-0.00494738
-0.00553304
-0.00611421
-0.00668064
-0.00722156
-0.00772589
-0.00818259
-0.00858091
-0.00891069
-0.00916263
-0.00932858
-0.00940175
-0.00937696
-0.00925078
-0.00902181
-0.00869105
-0.00826135
-0.0077378
-0.00712758
-0.00643992
-0.00568591
-0.00487826
-0.00403094
-0.00315888
-0.0022775
-0.00140228
-0.000548345
0.000270027
0.00103974
0.00174921
0.00238862
0.00295002
0.00342735
0.00381635
0.00411437
0.00432014
0.00443345
0.00445487
0.00438542
0.00422652
0.00397996
0.00364787
0.00323297
0.00273862
0.00216925
0.00153071
0.000830631
7.87454e-05
-0.000712956
-0.00153015
-0.00235629
-0.00317288
-0.00395998
-0.0046968
-0.00536259
-0.00593748
-0.00640355
-0.00674601
-0.00695387
-0.00702158
-0.00694983
-0.00674589
-0.00642382
-0.00600405
-0.00551232
-0.00497776
-0.00443045
-0.00389862
-0.00340603
-0.00296994
-0.00260025
-0.00229971
-0.00206525
-0.00188985
-0.0017645
-0.00167992
-0.00162753
-0.00159998
-0.00159116
-0.00159596
-0.00161021
-0.00163046
-0.00165376
-0.00167765
-0.00170015
-0.00171969
-0.00173506
-0.0017454
-0.00175015
-0.00174902
-0.00174198
-0.00172926
-0.00171128
-0.00168862
-0.00166203
-0.00163229
-0.00160027
-0.00156678
-0.00153262
-0.00149851
-0.00146505
-0.00143274
-0.00140199
-0.00137306
-0.00134612
-0.00132124
-0.00129843
-0.00127761
-0.00125867
-0.00124146
-0.00122578
-0.00121146
-0.00119831
-0.00118611
-0.0011747
-0.00116389
-0.00115353
-0.00114347
-0.00113358
-0.00112375
-0.00111387
-0.00110385
-0.00109364
-0.00108316
-0.00107237
-0.00106123
-0.00104971
-0.00103779
-0.00102544
-0.00101267
-0.000999466
-0.000985828
-0.000971758
-0.000957262
-0.000942344
-0.000927012
-0.00091127
-0.000895123
-0.000878574
-0.000861619
-0.000844253
-0.000826465
-0.000808239
-0.000789552
-0.000770383
-0.000750707
-0.000730506
-0.000709776
-0.000688536
-0.000666845
-0.00064481
-0.000622608
-0.000600366
-0.000579174
0.00206433
0.00193093
0.00178843
0.00166673
0.00155853
0.00145501
0.00135057
0.00124059
0.00112056
0.000986141
0.000833157
0.000657625
0.000455697
0.000223664
-4.20025e-05
-0.000344567
-0.000686904
-0.00107133
-0.00149944
-0.00197188
-0.0024882
-0.00304664
-0.00364409
-0.00427593
-0.00493612
-0.00561714
-0.00631024
-0.00700547
-0.00769202
-0.00835836
-0.00899259
-0.00958264
-0.0101166
-0.0105831
-0.0109713
-0.0112715
-0.0114752
-0.0115754
-0.0115666
-0.0114456
-0.0112112
-0.0108647
-0.0104093
-0.0098506
-0.00919669
-0.00845772
-0.0076459
-0.00677515
-0.00586082
-0.00491924
-0.00396726
-0.00302178
-0.00209924
-0.0012151
-0.000383466
0.000383344
0.00107501
0.00168336
0.0022024
0.00262815
0.00295843
0.00319255
0.00333091
0.00337467
0.00332537
0.00318469
0.00295452
0.00263691
0.00223428
0.00174965
0.00118698
0.000551655
-0.000149068
-0.000905718
-0.00170635
-0.00253648
-0.0033791
-0.00421503
-0.00502332
-0.00578197
-0.00646871
-0.00706198
-0.00754198
-0.00789196
-0.00809904
-0.00815507
-0.00805874
-0.00781568
-0.00743877
-0.00694816
-0.00637054
-0.00573739
-0.0050826
-0.00443937
-0.00383703
-0.00329827
-0.00283746
-0.00246035
-0.00216505
-0.00194413
-0.00178697
-0.0016819
-0.00161784
-0.00158503
-0.00157537
-0.00158216
-0.00160006
-0.00162477
-0.00165277
-0.00168122
-0.00170787
-0.00173099
-0.00174927
-0.00176182
-0.00176805
-0.00176773
-0.00176089
-0.00174783
-0.00172906
-0.00170529
-0.00167734
-0.0016461
-0.00161252
-0.00157748
-0.00154185
-0.00150637
-0.0014717
-0.00143833
-0.00140668
-0.001377
-0.00134945
-0.0013241
-0.00130092
-0.00127983
-0.00126069
-0.00124333
-0.00122755
-0.00121315
-0.00119993
-0.00118769
-0.00117623
-0.00116538
-0.00115496
-0.00114485
-0.00113489
-0.00112499
-0.00111504
-0.00110495
-0.00109465
-0.0010841
-0.00107322
-0.001062
-0.0010504
-0.0010384
-0.00102599
-0.00101315
-0.00099988
-0.000986183
-0.00097206
-0.000957515
-0.000942556
-0.00092719
-0.000911424
-0.000895264
-0.000878713
-0.000861775
-0.000844444
-0.000826715
-0.000808575
-0.000790006
-0.000770988
-0.000751498
-0.000731517
-0.000711036
-0.000690064
-0.000668641
-0.000646852
-0.000624829
-0.000602281
-0.000582789
0.0020555
0.00191092
0.00175701
0.00162615
0.00150953
0.00139672
0.00128082
0.00115607
0.00101693
0.000858086
0.00067454
0.00046157
0.000214709
-7.02407e-05
-0.000397148
-0.000769446
-0.00118998
-0.00166083
-0.00218309
-0.00275671
-0.00338028
-0.00405094
-0.00476425
-0.00551421
-0.00629331
-0.00709257
-0.00790182
-0.00870979
-0.0095044
-0.010273
-0.0110028
-0.0116807
-0.0122941
-0.0128308
-0.0132794
-0.0136297
-0.0138727
-0.014001
-0.014009
-0.0138931
-0.0136525
-0.0132884
-0.0128043
-0.0122067
-0.0115041
-0.0107078
-0.00983109
-0.00888918
-0.00789885
-0.006878
-0.00584506
-0.00481852
-0.00381633
-0.00285537
-0.00195091
-0.00111625
-0.000362344
0.000302275
0.000871563
0.00134178
0.00171122
0.00197979
0.00214858
0.00221939
0.00219433
0.00207549
0.00186491
0.00156463
0.00117679
0.000704077
0.000150025
-0.000480417
-0.00118036
-0.00194057
-0.00274914
-0.00359138
-0.00444985
-0.00530466
-0.00613391
-0.00691439
-0.00762242
-0.00823484
-0.0087301
-0.00908945
-0.00929858
-0.00934684
-0.00923096
-0.00895478
-0.00852973
-0.00797521
-0.00731804
-0.00659124
-0.00583163
-0.00507679
-0.00436138
-0.00371377
-0.00315348
-0.00269013
-0.00232404
-0.00204814
-0.00185073
-0.00171806
-0.0016365
-0.0015938
-0.00157962
-0.00158552
-0.00160476
-0.00163205
-0.0016632
-0.00169488
-0.00172454
-0.00175021
-0.00177047
-0.00178435
-0.00179126
-0.001791
-0.00178364
-0.00176957
-0.00174941
-0.00172397
-0.00169416
-0.001661
-0.00162548
-0.0015886
-0.00155125