/*--------------------------------*- C++ -*----------------------------------*\
  =========                 |
  \\      /  F ield         | OpenFOAM: The Open Source CFD Toolbox
   \\    /   O peration     | Website:  https://openfoam.org
    \\  /    A nd           | Version:  8
     \\/     M anipulation  |
\*---------------------------------------------------------------------------*/
FoamFile
{
    version     2.0;
    format      ascii;
    class       surfaceScalarField;
    location    "0.82";
    object      phi;
}
// * * * * * * * * * * * * * * * * * * * * * * * * * * * * * * * * * * * * * //

dimensions      [0 3 -1 0 0 0 0];

internalField   nonuniform List<scalar> 
24170
(
-2.32654e-12
2.32654e-12
4.30176e-12
-6.6283e-12
1.88606e-11
-1.45588e-11
3.96924e-11
-2.08318e-11
6.55646e-11
-2.58722e-11
9.57081e-11
-3.01434e-11
1.29615e-10
-3.3907e-11
1.66943e-10
-3.73282e-11
2.0748e-10
-4.0537e-11
2.51162e-10
-4.36821e-11
2.9812e-10
-4.69571e-11
3.48711e-10
-5.05914e-11
4.03458e-10
-5.47473e-11
4.62453e-10
-5.89944e-11
5.21873e-10
-5.94205e-11
5.5481e-10
-3.29373e-11
4.67826e-10
8.69843e-11
1.39567e-09
-9.27841e-10
-2.44337e-12
4.7699e-12
2.00727e-11
-2.91444e-11
6.66881e-11
-6.11742e-11
1.32517e-10
-8.66612e-11
2.13959e-10
-1.07314e-10
3.08534e-10
-1.24719e-10
4.14502e-10
-1.39875e-10
5.30538e-10
-1.53364e-10
6.55591e-10
-1.6559e-10
7.88831e-10
-1.76922e-10
9.29559e-10
-1.87685e-10
1.07686e-09
-1.97895e-10
1.22841e-09
-2.06296e-10
1.37658e-09
-2.07163e-10
1.49562e-09
-1.78464e-10
1.49983e-09
-3.71446e-11
1.0732e-09
5.13612e-10
3.10346e-09
-6.34585e-10
1.65888e-12
3.11103e-12
4.46302e-11
-7.21157e-11
1.28619e-10
-1.45163e-10
2.45796e-10
-2.03838e-10
3.90112e-10
-2.5163e-10
5.57133e-10
-2.91739e-10
7.43541e-10
-3.26283e-10
9.4659e-10
-3.56412e-10
1.16378e-09
-3.82785e-10
1.39262e-09
-4.05757e-10
1.63011e-09
-4.25172e-10
1.87156e-09
-4.39351e-10
2.1074e-09
-4.42133e-10
2.31475e-09
-4.14517e-10
2.43563e-09
-2.99342e-10
2.32164e-09
7.68464e-11
1.59118e-09
1.24407e-09
4.87662e-09
-1.81985e-10
9.837e-12
-6.72598e-12
7.86941e-11
-1.40973e-10
2.05833e-10
-2.72302e-10
3.80888e-10
-3.78893e-10
5.95298e-10
-4.66039e-10
8.42434e-10
-5.38876e-10
1.11701e-09
-6.0086e-10
1.41431e-09
-6.53715e-10
1.72963e-09
-6.98104e-10
2.05765e-09
-7.33778e-10
2.39137e-09
-7.58884e-10
2.71965e-09
-7.67633e-10
3.02179e-09
-7.44273e-10
3.25531e-09
-6.48043e-10
3.33023e-09
-3.7426e-10
3.06293e-09
3.44153e-10
2.128e-09
2.179e-09
6.61555e-09
3.89067e-10
2.22181e-11
-2.89441e-11
1.22736e-10
-2.41491e-10
2.99075e-10
-4.48641e-10
5.38468e-10
-6.18286e-10
8.29787e-10
-7.57358e-10
1.16397e-09
-8.73059e-10
1.53332e-09
-9.70214e-10
1.93053e-09
-1.05093e-09
2.34779e-09
-1.11536e-09
2.77569e-09
-1.16169e-09
3.20146e-09
-1.18465e-09
3.60523e-09
-1.17141e-09
3.95288e-09
-1.09193e-09
4.18239e-09
-8.77547e-10
4.18151e-09
-3.73377e-10
3.7654e-09
7.60263e-10
2.70969e-09
3.23471e-09
8.25322e-09
1.07202e-09
3.86506e-11
-6.75947e-11
1.76784e-10
-3.79625e-10
4.0835e-10
-6.80207e-10
7.18131e-10
-9.28067e-10
1.09236e-09
-1.13158e-09
1.51928e-09
-1.29999e-09
1.98835e-09
-1.43928e-09
2.48897e-09
-1.55154e-09
3.00927e-09
-1.63566e-09
3.53457e-09
-1.68698e-09
4.04479e-09
-1.69487e-09
4.50995e-09
-1.63656e-09
4.88234e-09
-1.46431e-09
5.08454e-09
-1.07975e-09
4.99623e-09
-2.85074e-10
4.45814e-09
1.29836e-09
3.35205e-09
4.3408e-09
9.74926e-09
1.85601e-09
5.88013e-11
-1.26396e-10
2.40274e-10
-5.61098e-10
5.32664e-10
-9.72596e-10
9.18014e-10
-1.31342e-09
1.3798e-09
-1.59337e-09
1.90336e-09
-1.82354e-09
2.47481e-09
-2.01073e-09
3.07961e-09
-2.15634e-09
3.70099e-09
-2.25704e-09
4.31794e-09
-2.30394e-09
4.90219e-09
-2.27912e-09
5.41345e-09
-2.14783e-09
5.79254e-09
-1.84341e-09
5.95362e-09
-1.24083e-09
5.78255e-09
-1.14004e-10
5.16177e-09
1.91913e-09
4.06541e-09
5.43716e-09
1.10787e-08
2.73595e-09
8.2086e-11
-2.08482e-10
3.11892e-10
-7.90904e-10
6.69716e-10
-1.33042e-09
1.13436e-09
-1.77806e-09
1.68638e-09
-2.14539e-09
2.30799e-09
-2.44515e-09
2.98157e-09
-2.68432e-09
3.6881e-09
-2.86287e-09
4.40523e-09
-2.97417e-09
5.10506e-09
-3.00376e-09
5.75101e-09
-2.92507e-09
6.29373e-09
-2.69055e-09
6.6665e-09
-2.21617e-09
6.78317e-09
-1.3575e-09
6.54735e-09
1.21819e-10
5.88933e-09
2.57715e-09
4.85416e-09
6.47234e-09
1.22241e-08
3.70874e-09
1.07631e-10
-3.16113e-10
3.89423e-10
-1.0727e-09
8.15596e-10
-1.75659e-09
1.36106e-09
-2.32352e-09
2.00328e-09
-2.78761e-09
2.72114e-09
-3.163e-09
3.49307e-09
-3.45626e-09
4.2952e-09
-3.665e-09
5.09931e-09
-3.77829e-09
5.87064e-09
-3.77508e-09
6.56519e-09
-3.61962e-09
7.12704e-09
-3.25239e-09
7.48693e-09
-2.57606e-09
7.56618e-09
-1.43676e-09
7.29354e-09
3.94458e-10
6.64549e-09
3.2252e-09
5.71568e-09
7.40215e-09
1.31705e-08
4.76929e-09
1.34232e-10
-4.50345e-10
4.69607e-10
-1.40807e-09
9.64481e-10
-2.25147e-09
1.5892e-09
-2.94825e-09
2.31797e-09
-3.51638e-09
3.12631e-09
-3.97135e-09
3.98864e-09
-4.31858e-09
4.87621e-09
-4.55257e-09
5.75517e-09
-4.65725e-09
6.58464e-09
-4.60456e-09
7.31502e-09
-4.35e-09
7.8872e-09
-3.82457e-09
8.23471e-09
-2.92357e-09
8.29243e-09
-1.49447e-09
8.01731e-09
6.69574e-10
7.42536e-09
3.81716e-09
6.63935e-09
8.18815e-09
1.39025e-08
5.90741e-09
1.60478e-10
-6.10823e-10
5.48038e-10
-1.79563e-09
1.10838e-09
-2.81181e-09
1.80669e-09
-3.64655e-09
2.6138e-09
-4.3235e-09
3.50203e-09
-4.85957e-09
4.44199e-09
-5.25855e-09
5.40055e-09
-5.51112e-09
6.339e-09
-5.5957e-09
7.21187e-09
-5.47743e-09
7.96647e-09
-5.1046e-09
8.54437e-09
-4.40247e-09
8.88658e-09
-3.26578e-09
8.94534e-09
-1.55324e-09
8.70525e-09
9.09665e-10
8.21281e-09
4.3096e-09
7.60467e-09
8.7963e-09
1.44026e-08
7.10452e-09
1.5469e-10
-7.65513e-10
5.17884e-10
-2.15883e-09
1.03568e-09
-3.3296e-09
1.67406e-09
-4.28494e-09
2.40582e-09
-5.05526e-09
3.20538e-09
-5.65912e-09
4.04551e-09
-6.09869e-09
4.89553e-09
-6.36114e-09
5.72011e-09
-6.42028e-09
6.47893e-09
-6.23625e-09
7.12744e-09
-5.7531e-09
7.61961e-09
-4.89465e-09
7.91411e-09
-3.56027e-09
7.9851e-09
-1.62423e-09
7.83835e-09
1.05642e-09
7.52949e-09
4.61845e-09
7.17597e-09
9.14981e-09
1.46316e-08
6.94702e-09
1.94261e-10
-9.59774e-10
6.45064e-10
-2.60963e-09
1.27859e-09
-3.96312e-09
2.05185e-09
-5.05821e-09
2.93133e-09
-5.93473e-09
3.88577e-09
-6.61357e-09
4.88207e-09
-7.09498e-09
5.8831e-09
-7.36217e-09
6.84691e-09
-7.38409e-09
7.72716e-09
-7.11649e-09
8.47517e-09
-6.50111e-09
9.04461e-09
-5.46409e-09
9.39958e-09
-3.91524e-09
9.5267e-09
-1.75135e-09
9.45021e-09
1.13291e-09
9.24573e-09
4.82293e-09
9.04436e-09
9.35118e-09
1.46609e-08
9.01503e-09
2.35143e-10
-1.19492e-09
7.76214e-10
-3.1507e-09
1.52636e-09
-4.71327e-09
2.43243e-09
-5.96427e-09
3.4545e-09
-6.9568e-09
4.55588e-09
-7.71495e-09
5.6981e-09
-8.2372e-09
6.8386e-09
-8.50268e-09
7.93052e-09
-8.47601e-09
8.92415e-09
-8.11011e-09
9.77063e-09
-7.34759e-09
1.04284e-08
-6.12183e-09
1.08724e-08
-4.35927e-09
1.11062e-08
-1.98521e-09
1.11742e-08
1.06492e-09
1.11692e-08
4.82794e-09
1.12294e-08
9.29103e-09
1.43728e-08
1.15175e-08
2.681e-10
-1.46302e-09
8.80302e-10
-3.7629e-09
1.71907e-09
-5.55205e-09
2.72178e-09
-6.96698e-09
3.84373e-09
-8.07875e-09
5.04485e-09
-8.91608e-09
6.28391e-09
-9.47626e-09
7.51636e-09
-9.73513e-09
8.69473e-09
-9.65438e-09
9.77134e-09
-9.18673e-09
1.07034e-08
-8.27966e-09
1.14605e-08
-6.87887e-09
1.20337e-08
-4.93251e-09
1.24461e-08
-2.3976e-09
1.27603e-08
7.50736e-10
1.30803e-08
4.50795e-09
1.35433e-08
8.828e-09
1.36167e-08
1.42995e-08
2.74366e-10
-1.73738e-09
8.96011e-10
-4.38455e-09
1.73894e-09
-6.39497e-09
2.73712e-09
-7.96516e-09
3.84631e-09
-9.18795e-09
5.02847e-09
-1.00982e-08
6.24573e-09
-1.06935e-08
7.4586e-09
-1.0948e-08
8.62697e-09
-1.08228e-08
9.71373e-09
-1.02735e-08
1.06903e-08
-9.25626e-09
1.15441e-08
-7.73261e-09
1.22859e-08
-5.67438e-09
1.29574e-08
-3.06909e-09
1.36345e-08
7.36463e-11
1.44231e-08
3.71934e-09
1.54512e-08
7.79991e-09
1.22184e-08
1.68495e-08
2.21761e-10
-1.95914e-09
7.18524e-10
-4.88131e-09
1.38508e-09
-7.06153e-09
2.16807e-09
-8.74815e-09
3.03504e-09
-1.00549e-08
3.96046e-09
-1.10237e-08
4.92073e-09
-1.16538e-08
5.89295e-09
-1.19202e-08
6.8563e-09
-1.17861e-08
7.79552e-09
-1.12127e-08
8.70571e-09
-1.01664e-08
9.5979e-09
-8.62481e-09
1.05042e-08
-6.58068e-09
1.14809e-08
-4.04585e-09
1.2608e-08
-1.05337e-09
1.39857e-08
2.34159e-09
1.5723e-08
6.06261e-09
1.00163e-08
1.79251e-08
6.32197e-11
-2.02236e-09
1.96685e-10
-5.01478e-09
3.69123e-10
-7.23396e-09
5.69137e-10
-8.94817e-09
7.94933e-10
-1.02807e-08
1.04941e-09
-1.12781e-08
1.33853e-09
-1.19429e-08
1.67137e-09
-1.2253e-08
2.06125e-09
-1.2176e-08
2.5279e-09
-1.16793e-08
3.1001e-09
-1.07386e-08
3.81831e-09
-9.34302e-09
4.73641e-09
-7.49877e-09
5.92162e-09
-5.23106e-09
7.45215e-09
-2.58391e-09
9.41238e-09
3.81366e-10
1.18855e-08
3.58947e-09
6.95574e-09
1.4946e-08
-2.51007e-10
-1.77136e-09
-8.19965e-10
-4.44582e-09
-1.59263e-09
-6.4613e-09
-2.50216e-09
-8.03864e-09
-3.49782e-09
-9.28504e-09
-4.53131e-09
-1.02446e-08
-5.55131e-09
-1.09229e-08
-6.50139e-09
-1.1303e-08
-7.31924e-09
-1.13581e-08
-7.9368e-09
-1.10618e-08
-8.28075e-09
-1.03947e-08
-8.27355e-09
-9.35022e-09
-7.83521e-09
-7.93711e-09
-6.88574e-09
-6.18052e-09
-5.3487e-09
-4.12095e-09
-3.15548e-09
-1.81185e-09
-2.49599e-10
6.83591e-10
3.29621e-09
3.40993e-09
-3.63459e-10
-1.4079e-09
-1.18712e-09
-3.62216e-09
-2.30971e-09
-5.33871e-09
-3.64371e-09
-6.70464e-09
-5.12801e-09
-7.80075e-09
-6.70776e-09
-8.66489e-09
-8.32629e-09
-9.30438e-09
-9.92208e-09
-9.70718e-09
-1.14283e-08
-9.85187e-09
-1.27742e-08
-9.71594e-09
-1.38866e-08
-9.28227e-09
-1.46931e-08
-8.5437e-09
-1.51245e-08
-7.50575e-09
-1.51176e-08
-6.18741e-09
-1.46182e-08
-4.62038e-09
-1.3583e-08
-2.84701e-09
-1.1982e-08
-9.1742e-10
1.11371e-09
-9.79952e-09
-3.87872e-10
-1.02002e-09
-1.27282e-09
-2.73721e-09
-2.49089e-09
-4.12064e-09
-3.95515e-09
-5.24038e-09
-5.60542e-09
-6.15048e-09
-7.38825e-09
-6.88205e-09
-9.24871e-09
-7.44391e-09
-1.11271e-08
-7.82875e-09
-1.29586e-08
-8.02042e-09
-1.4674e-08
-8.00054e-09
-1.62023e-08
-7.75392e-09
-1.74735e-08
-7.27252e-09
-1.84214e-08
-6.55788e-09
-1.89867e-08
-5.62209e-09
-1.91197e-08
-4.48734e-09
-1.87823e-08
-3.18442e-09
-1.79491e-08
-1.75062e-09
-2.2742e-10
-1.6608e-08
-3.44829e-10
-6.75195e-10
-1.14548e-09
-1.93656e-09
-2.26573e-09
-3.00039e-09
-3.63257e-09
-3.87354e-09
-5.19405e-09
-4.589e-09
-6.90387e-09
-5.17224e-09
-8.71476e-09
-5.63303e-09
-1.05754e-08
-5.96808e-09
-1.24298e-08
-6.16607e-09
-1.42176e-08
-6.21275e-09
-1.58762e-08
-6.09528e-09
-1.73432e-08
-5.80549e-09
-1.85591e-08
-5.34203e-09
-1.94699e-08
-4.71132e-09
-2.00297e-08
-3.92745e-09
-2.02029e-08
-3.01125e-09
-1.99648e-08
-1.98878e-09
-8.90025e-10
-1.93021e-08
-2.71125e-10
-4.0407e-10
-9.21118e-10
-1.28657e-09
-1.85289e-09
-2.06861e-09
-3.01048e-09
-2.71595e-09
-4.35149e-09
-3.24799e-09
-5.8381e-09
-3.68563e-09
-7.43232e-09
-4.03881e-09
-9.09331e-09
-4.30709e-09
-1.07763e-08
-4.4831e-09
-1.24326e-08
-4.55639e-09
-1.40111e-08
-4.5168e-09
-1.54597e-08
-4.35693e-09
-1.67278e-08
-4.07396e-09
-1.77686e-08
-3.67046e-09
-1.85415e-08
-3.15457e-09
-1.90134e-08
-2.5394e-09
-1.916e-08
-1.84209e-09
-1.08312e-09
-1.89669e-08
-1.91799e-10
-2.12271e-10
-6.77953e-10
-8.00415e-10
-1.39892e-09
-1.34765e-09
-2.31351e-09
-1.80136e-09
-3.38786e-09
-2.17363e-09
-4.59209e-09
-2.4814e-09
-5.8971e-09
-2.7338e-09
-7.27221e-09
-2.93198e-09
-8.68382e-09
-3.07149e-09
-1.00951e-08
-3.14514e-09
-1.14665e-08
-3.14538e-09
-1.27572e-08
-3.06624e-09
-1.39266e-08
-2.90456e-09
-1.49363e-08
-2.66075e-09
-1.57519e-08
-2.339e-09
-1.63443e-08
-1.94698e-09
-1.66911e-08
-1.49524e-09
-9.9688e-10
-1.67774e-08
-1.2128e-10
-9.0991e-11
-4.59884e-10
-4.61812e-10
-9.85554e-10
-8.21978e-10
-1.668e-09
-1.11891e-09
-2.48043e-09
-1.3612e-09
-3.39988e-09
-1.56195e-09
-4.40501e-09
-1.72867e-09
-5.47395e-09
-1.86304e-09
-6.58286e-09
-1.96258e-09
-7.70534e-09
-2.02266e-09
-8.8126e-09
-2.03812e-09
-9.87426e-09
-2.00458e-09
-1.08595e-08
-1.91931e-09
-1.17385e-08
-1.78176e-09
-1.24837e-08
-1.59379e-09
-1.30712e-08
-1.35952e-09
-1.34814e-08
-1.08496e-09
-7.77828e-10
-1.37005e-08
-6.61603e-11
-2.48307e-11
-2.8596e-10
-2.42012e-10
-6.48197e-10
-4.59741e-10
-1.13009e-09
-6.37013e-10
-1.71083e-09
-7.80463e-10
-2.37342e-09
-8.99365e-10
-3.10294e-09
-9.99145e-10
-3.88468e-09
-1.08131e-09
-4.70266e-09
-1.1446e-09
-5.53903e-09
-1.18629e-09
-6.37397e-09
-1.20318e-09
-7.18615e-09
-1.1924e-09
-7.95347e-09
-1.15198e-09
-8.65406e-09
-1.08118e-09
-9.26724e-09
-9.80617e-10
-9.77449e-09
-8.52271e-10
-1.01602e-08
-6.99273e-10
-5.25681e-10
-1.04123e-08
-2.79735e-11
3.14276e-12
-1.59694e-10
-1.10292e-10
-3.93761e-10
-2.25674e-10
-7.1286e-10
-3.17914e-10
-1.10152e-09
-3.91799e-10
-1.54788e-09
-4.53009e-10
-2.04218e-09
-5.0485e-10
-2.57515e-09
-5.48337e-10
-3.13684e-09
-5.82912e-10
-3.71597e-09
-6.07155e-10
-4.29981e-09
-6.19342e-10
-4.87433e-09
-6.17872e-10
-5.42476e-09
-6.01558e-10
-5.93612e-09
-5.69814e-10
-6.39399e-09
-5.22747e-10
-6.78511e-09
-4.61155e-10
-7.09793e-09
-3.86454e-10
-3.00472e-10
-7.32314e-09
-5.41788e-12
8.56064e-12
-7.62345e-11
-3.9475e-11
-2.14245e-10
-8.76636e-11
-4.0679e-10
-1.25368e-10
-6.43362e-10
-1.55226e-10
-9.16425e-10
-1.79947e-10
-1.2202e-09
-2.01071e-10
-1.54945e-09
-2.19095e-10
-1.89854e-09
-2.33821e-10
-2.26103e-09
-2.44663e-10
-2.62948e-09
-2.50893e-10
-2.99554e-09
-2.5181e-10
-3.35023e-09
-2.46868e-10
-3.68429e-09
-2.35754e-10
-3.98861e-09
-2.18428e-10
-4.25464e-09
-1.9513e-10
-4.47475e-09
-1.66342e-10
-1.327e-10
-4.64252e-09
4.39508e-12
4.16556e-12
-2.72091e-11
-7.87087e-12
-9.56161e-11
-1.92567e-11
-1.93025e-10
-2.79599e-11
-3.13496e-10
-3.47555e-11
-4.53062e-10
-4.03801e-11
-6.08896e-10
-4.52371e-11
-7.78532e-10
-4.94593e-11
-9.59347e-10
-5.30056e-11
-1.14827e-09
-5.57388e-11
-1.34168e-09
-5.74831e-11
-1.53543e-09
-5.8065e-11
-1.72495e-09
-5.73427e-11
-1.90548e-09
-5.52256e-11
-2.07222e-09
-5.16839e-11
-2.2206e-09
-4.67518e-11
-2.34644e-09
-4.05028e-11
-3.30612e-11
-2.44608e-09
4.16556e-12
-3.70531e-12
-2.2962e-11
-5.09219e-11
-8.56774e-11
-1.26057e-10
-1.71295e-10
-2.20754e-10
-2.73759e-10
-3.29498e-10
-3.86981e-10
-4.45046e-10
-5.02389e-10
-5.57615e-10
-6.09299e-10
-6.5605e-10
-6.96553e-10
-7.29614e-10
5.1704e-11
-5.1704e-11
1.78654e-10
-1.2695e-10
3.49042e-10
-1.70389e-10
5.33405e-10
-1.84363e-10
7.08424e-10
-1.75018e-10
8.56413e-10
-1.47989e-10
9.64481e-10
-1.08068e-10
1.02366e-09
-5.91747e-11
1.02795e-09
-4.29831e-12
9.73798e-10
5.41568e-11
8.59088e-10
1.1471e-10
6.82775e-10
1.76313e-10
4.44372e-10
2.38403e-10
1.43594e-10
3.00777e-10
-2.19894e-10
3.63489e-10
-6.46654e-10
4.2676e-10
-1.13754e-09
4.90885e-10
-1.6937e-09
5.56159e-10
-2.31652e-09
6.22819e-10
-3.0075e-09
6.9098e-10
-3.76809e-09
7.60592e-10
-4.59949e-09
8.314e-10
-5.50242e-09
9.0293e-10
-6.47689e-09
9.74471e-10
-7.52197e-09
1.04508e-09
-8.63556e-09
1.11359e-09
-9.81418e-09
1.17863e-09
-1.10528e-08
1.23865e-09
-1.23448e-08
1.29196e-09
-1.36815e-08
1.33676e-09
-1.50527e-08
1.37121e-09
-1.64462e-08
1.39344e-09
-1.78479e-08
1.40167e-09
-1.92421e-08
1.3942e-09
-2.06116e-08
1.36955e-09
-2.19381e-08
1.32646e-09
-2.32021e-08
1.26398e-09
-2.43836e-08
1.18155e-09
-2.54626e-08
1.07901e-09
-2.64193e-08
9.56653e-10
-2.72345e-08
8.15247e-10
-2.78906e-08
6.56038e-10
-2.83713e-08
4.80736e-10
-2.86628e-08
2.91498e-10
-2.87539e-08
9.11449e-11
-2.86351e-08
-1.18877e-10
-2.83014e-08
-3.33641e-10
-2.77507e-08
-5.50673e-10
-2.69841e-08
-7.66597e-10
-2.60061e-08
-9.78088e-10
-2.4824e-08
-1.18202e-09
-2.34485e-08
-1.37549e-09
-2.18926e-08
-1.55597e-09
-2.01713e-08
-1.7213e-09
-1.83015e-08
-1.86976e-09
-1.63014e-08
-2.00012e-09
-1.41898e-08
-2.1116e-09
-1.19859e-08
-2.20387e-09
-9.70897e-09
-2.27695e-09
-7.37776e-09
-2.3312e-09
-5.01057e-09
-2.36719e-09
-2.62501e-09
-2.38555e-09
-2.3822e-10
-2.38679e-09
2.13353e-09
-2.37175e-09
4.47434e-09
-2.34081e-09
6.7681e-09
-2.29376e-09
8.99879e-09
-2.23068e-09
1.11501e-08
-2.15129e-09
1.32051e-08
-2.05499e-09
1.51461e-08
-1.94099e-09
1.69545e-08
-1.80843e-09
1.8611e-08
-1.65653e-09
2.00958e-08
-1.48475e-09
2.13888e-08
-1.29301e-09
2.24706e-08
-1.08181e-09
2.3323e-08
-8.52453e-10
2.39302e-08
-6.07173e-10
2.42794e-08
-3.49226e-10
2.43624e-08
-8.29696e-11
2.41753e-08
1.87135e-10
2.37223e-08
4.53014e-10
2.30126e-08
7.09703e-10
2.20628e-08
9.49772e-10
2.08966e-08
1.16624e-09
1.95439e-08
1.35268e-09
1.80402e-08
1.50365e-09
1.64252e-08
1.61504e-09
1.47407e-08
1.6845e-09
1.30291e-08
1.71158e-09
1.13313e-08
1.69785e-09
9.68455e-09
1.64671e-09
8.12137e-09
1.56317e-09
6.66799e-09
1.45338e-09
5.34387e-09
1.32412e-09
4.1616e-09
1.18227e-09
3.12719e-09
1.03442e-09
2.24068e-09
8.86513e-10
1.49692e-09
7.43759e-10
8.86349e-10
6.10568e-10
3.95759e-10
4.9059e-10
9.07542e-12
3.86684e-10
-2.91742e-10
3.00817e-10
-5.25583e-10
2.33841e-10
-7.10931e-10
1.85348e-10
-8.64635e-10
1.53703e-10
-1.00083e-09
1.3619e-10
-1.1302e-09
1.29378e-10
-1.25978e-09
1.29572e-10
-1.39304e-09
1.33268e-10
-1.53054e-09
1.37499e-10
-1.67058e-09
1.40034e-10
-1.81e-09
1.39422e-10
-1.94493e-09
1.34929e-10
-2.07133e-09
1.26404e-10
-2.18546e-09
1.14126e-10
-2.28412e-09
9.86609e-11
-2.36487e-09
8.07455e-11
-2.42606e-09
6.11916e-11
-2.46688e-09
4.08194e-11
-2.48727e-09
2.03929e-11
-2.48806e-09
7.90508e-13
-2.47026e-09
-1.7798e-11
-2.43582e-09
-3.44388e-11
-2.38684e-09
-4.89847e-11
-2.32567e-09
-6.11649e-11
-2.25481e-09
-7.08609e-11
-2.17675e-09
-7.80669e-11
-2.09387e-09
-8.28727e-11
-2.00843e-09
-8.54457e-11
-1.92242e-09
-8.60111e-11
-1.83758e-09
-8.48329e-11
-1.75539e-09
-8.21955e-11
-1.677e-09
-7.83873e-11
-1.60331e-09
-7.36884e-11
-1.53495e-09
-6.83595e-11
-1.47232e-09
-6.26353e-11
-1.4156e-09
-5.67199e-11
-1.36481e-09
-5.07852e-11
-1.31984e-09
-4.49707e-11
-1.28046e-09
-3.93854e-11
-1.24635e-09
-3.411e-11
-1.21714e-09
-2.92008e-11
-1.19245e-09
-2.46929e-11
-1.17185e-09
-2.06038e-11
-1.15491e-09
-1.69372e-11
-1.14123e-09
-1.36856e-11
-1.13039e-09
-1.08337e-11
-1.12203e-09
-8.36019e-12
-1.11579e-09
-6.23996e-12
-1.11135e-09
-4.44565e-12
-1.1084e-09
-2.95018e-12
-1.10667e-09
-1.72519e-12
-1.10593e-09
-7.42435e-13
-1.10599e-09
6.54569e-14
-1.10663e-09
6.39689e-13
-1.1077e-09
1.06783e-12
-1.10907e-09
1.36869e-12
-1.11063e-09
1.56008e-12
-1.1123e-09
1.66649e-12
-1.11401e-09
1.71195e-12
-1.11573e-09
1.71965e-12
-1.11744e-09
1.71144e-12
-1.11915e-09
1.7063e-12
-1.12086e-09
1.71835e-12
-1.12262e-09
1.75366e-12
-1.12442e-09
1.80642e-12
-1.12628e-09
1.85451e-12
-1.12813e-09
1.85463e-12
-1.12987e-09
1.73809e-12
-1.13128e-09
1.40714e-12
-1.13202e-09
7.45263e-13
-1.13161e-09
-4.16663e-13
-1.1293e-09
-2.30692e-12
-1.12421e-09
-5.08765e-12
-1.11509e-09
-9.12178e-12
-1.10023e-09
-1.48574e-11
-1.077e-09
-2.32311e-11
-1.04007e-09
-3.69301e-11
-9.829e-10
-5.71719e-11
-1.23996e-10
-8.58904e-10
9.27784e-11
-1.44482e-10
2.90193e-10
-3.24365e-10
5.30123e-10
-4.10319e-10
7.63183e-10
-4.17423e-10
9.4892e-10
-3.60755e-10
1.05506e-09
-2.54126e-10
1.05648e-09
-1.09494e-10
9.34118e-10
6.3189e-11
6.73875e-10
2.55944e-10
2.65416e-10
4.62616e-10
-2.98578e-10
6.78704e-10
-1.02337e-09
9.01101e-10
-1.91282e-09
1.12785e-09
-2.96994e-09
1.35791e-09
-4.19731e-09
1.59085e-09
-5.59723e-09
1.82668e-09
-7.17191e-09
2.06556e-09
-8.92333e-09
2.30759e-09
-1.08531e-08
2.5526e-09
-1.29621e-08
2.80002e-09
-1.52503e-08
3.0487e-09
-1.77157e-08
3.29685e-09
-2.03547e-08
3.54194e-09
-2.3161e-08
3.78074e-09
-2.61252e-08
4.00929e-09
-2.92346e-08
4.22301e-09
-3.24728e-08
4.41678e-09
-3.58192e-08
4.58504e-09
-3.92492e-08
4.72202e-09
-4.27343e-08
4.8218e-09
-4.62417e-08
4.87861e-09
-4.97352e-08
4.88694e-09
-5.31753e-08
4.8418e-09
-5.652e-08
4.7389e-09
-5.97253e-08
4.57483e-09
-6.27461e-08
4.34727e-09
-6.55372e-08
4.05507e-09
-6.80541e-08
3.69844e-09
-7.0254e-08
3.27895e-09
-7.2097e-08
2.79958e-09
-7.35464e-08
2.26472e-09
-7.45704e-08
1.68005e-09
-7.51422e-08
1.05244e-09
-7.52406e-08
3.89917e-10
-7.48505e-08
-2.98944e-10
-7.39644e-08
-1.005e-09
-7.25803e-08
-1.71771e-09
-7.07036e-08
-2.42738e-09
-6.83458e-08
-3.12433e-09
-6.55247e-08
-3.79928e-09
-6.2263e-08
-4.44368e-09
-5.85886e-08
-5.04984e-09
-5.45334e-08
-5.61119e-09
-5.01324e-08
-6.12235e-09
-4.54229e-08
-6.57923e-09
-4.0444e-08
-6.97907e-09
-3.52352e-08
-7.32037e-09
-2.98363e-08
-7.60278e-09
-2.42863e-08
-7.82696e-09
-1.86232e-08
-7.99431e-09
-1.28836e-08
-8.10674e-09
-7.10285e-09
-8.16634e-09
-1.31463e-09
-8.17501e-09
4.44776e-09
-8.13415e-09
1.01515e-08
-8.04451e-09
1.57641e-08
-7.90637e-09
2.12527e-08
-7.7193e-09
2.65833e-08
-7.48185e-09
3.17199e-08
-7.19165e-09
3.66245e-08
-6.84559e-09
4.12563e-08
-6.44022e-09
4.55719e-08
-5.97211e-09
4.95255e-08
-5.43834e-09
5.30695e-08
-4.83704e-09
5.61557e-08
-4.16801e-09
5.87365e-08
-3.43321e-09
6.07666e-08
-2.63731e-09
6.22055e-08
-1.78815e-09
6.30197e-08
-8.97127e-10
6.3183e-08
2.37772e-11
6.2687e-08
9.49022e-10
6.1532e-08
1.86474e-09
5.97367e-08
2.74506e-09
5.7337e-08
3.56597e-09
5.43863e-08
4.30339e-09
5.0955e-08
4.93491e-09
4.71286e-08
5.4414e-09
4.30045e-08
5.80859e-09
3.86878e-08
6.02827e-09
3.42865e-08
6.09919e-09
2.9906e-08
6.02722e-09
2.56442e-08
5.825e-09
2.15868e-08
5.51078e-09
1.7804e-08
5.10686e-09
1.43485e-08
4.63777e-09
1.12545e-08
4.12843e-09
8.53832e-09
3.60271e-09
6.19969e-09
3.08239e-09
4.22368e-09
2.58658e-09
2.58292e-09
2.13135e-09
1.24021e-09
1.7294e-09
1.51426e-10
1.3896e-09
-7.31131e-10
1.1164e-09
-1.45519e-09
9.09412e-10
-2.06503e-09
7.63534e-10
-2.59861e-09
6.69774e-10
-3.08571e-09
6.16482e-10
-3.54707e-09
5.90932e-10
-3.99469e-09
5.80882e-10
-4.43298e-09
5.75796e-10
-4.86052e-09
5.67568e-10
-5.27184e-09
5.50743e-10
-5.65926e-09
5.2235e-10
-6.01435e-09
4.8149e-10
-6.32906e-09
4.28842e-10
-6.59657e-09
3.66167e-10
-6.81171e-09
2.95889e-10
-6.97128e-09
2.20756e-10
-7.07404e-09
1.43581e-10
-7.1207e-09
6.70571e-11
-7.11359e-09
-6.32123e-12
-7.05674e-09
-7.46488e-11
-6.9551e-09
-1.36073e-10
-6.81464e-09
-1.89452e-10
-6.6418e-09
-2.34004e-10
-6.44329e-09
-2.69372e-10
-6.22577e-09
-2.95588e-10
-5.99563e-09
-3.13013e-10
-5.75879e-09
-3.22277e-10
-5.5206e-09
-3.24208e-10
-5.28566e-09
-3.19769e-10
-5.05787e-09
-3.09989e-10
-4.84034e-09
-2.95912e-10
-4.63548e-09
-2.7855e-10
-4.44499e-09
-2.58849e-10
-4.26997e-09
-2.37659e-10
-4.11096e-09
-2.15726e-10
-3.96807e-09
-1.93678e-10
-3.84101e-09
-1.72029e-10
-3.72922e-09
-1.51183e-10
-3.63188e-09
-1.31443e-10
-3.54806e-09
-1.13023e-10
-3.47669e-09
-9.60606e-11
-3.41667e-09
-8.06276e-11
-3.36686e-09
-6.67449e-11
-3.32615e-09
-5.43923e-11
-3.29347e-09
-4.35187e-11
-3.26778e-09
-3.4051e-11
-3.24812e-09
-2.59004e-11
-3.23359e-09
-1.89691e-11
-3.22339e-09
-1.31545e-11
-3.21676e-09
-8.35154e-12
-3.21305e-09
-4.45373e-12
-3.21164e-09
-1.35041e-12
-3.21204e-09
1.03929e-12
-3.21378e-09
2.81302e-12
-3.2165e-09
4.08387e-12
-3.21987e-09
4.93197e-12
-3.22365e-09
5.44729e-12
-3.22765e-09
5.71742e-12
-3.23176e-09
5.8265e-12
-3.2359e-09
5.85253e-12
-3.24006e-09
5.8617e-12
-3.24424e-09
5.90064e-12
-3.24847e-09
5.9851e-12
-3.25275e-09
6.08541e-12
-3.25701e-09
6.11066e-12
-3.26104e-09
5.89175e-12
-3.26447e-09
5.16675e-12
-3.26663e-09
3.5689e-12
-3.26652e-09
6.334e-13
-3.26269e-09
-4.25249e-12
-3.2532e-09
-1.17907e-11
-3.23546e-09
-2.28288e-11
-3.2061e-09
-3.84789e-11
-3.16065e-09
-6.03086e-11
-3.09273e-09
-9.1158e-11
-2.99277e-09
-1.36889e-10
-2.84344e-09
-2.06504e-10
-3.47412e-10
-2.62002e-09
7.24821e-11
-2.16965e-10
2.03465e-10
-4.55347e-10
3.25491e-10
-5.32345e-10
3.85627e-10
-4.77558e-10
3.41097e-10
-3.16225e-10
1.57277e-10
-7.03062e-11
-1.93669e-10
2.41453e-10
-7.33969e-10
6.03489e-10
-1.48122e-09
1.0032e-09
-2.44931e-09
1.4307e-09
-3.64918e-09
1.87858e-09
-5.08951e-09
2.34144e-09
-6.77725e-09
2.81559e-09
-8.71798e-09
3.29863e-09
-1.09161e-08
3.78901e-09
-1.33751e-08
4.28566e-09
-1.60971e-08
4.78758e-09
-1.9083e-08
5.2935e-09
-2.23319e-08
5.80149e-09
-2.58406e-08
6.30872e-09
-2.96032e-08
6.81127e-09
-3.36103e-08
7.30391e-09
-3.78485e-08
7.78013e-09
-4.22999e-08
8.23216e-09
-4.69416e-08
8.65104e-09
-5.17455e-08
9.02687e-09
-5.66778e-08
9.34904e-09
-6.16993e-08
9.60656e-09
-6.67656e-08
9.78839e-09
-7.18277e-08
9.88384e-09
-7.6832e-08
9.88295e-09
-8.1722e-08
9.77688e-09
-8.64384e-08
9.55827e-09
-9.09211e-08
9.22156e-09
-9.51095e-08
8.76326e-09
-9.89444e-08
8.18219e-09
-1.02369e-07
7.4796e-09
-1.0533e-07
6.65923e-09
-1.07778e-07
5.72733e-09
-1.09671e-07
4.69249e-09
-1.10972e-07
3.56556e-09
-1.11651e-07
2.35932e-09
-1.11687e-07
1.08826e-09
-1.11065e-07
-2.31664e-10
-1.09781e-07
-1.58374e-09
-1.07835e-07
-2.95025e-09
-1.05239e-07
-4.31367e-09
-1.0201e-07
-5.65685e-09
-9.81708e-08
-6.96339e-09
-9.37522e-08
-8.21796e-09
-8.87891e-08
-9.4067e-09
-8.33215e-08
-1.05175e-08
-7.73925e-08
-1.15402e-08
-7.10481e-08
-1.24668e-08
-6.43358e-08
-1.32915e-08
-5.73039e-08
-1.40109e-08
-5.00009e-08
-1.46234e-08
-4.24742e-08
-1.51295e-08
-3.47699e-08
-1.55312e-08
-2.69326e-08
-1.58316e-08
-1.90046e-08
-1.60347e-08
-1.10264e-08
-1.61446e-08
-3.03652e-09
-1.61649e-08
4.92746e-09
-1.60981e-08
1.28284e-08
-1.59455e-08
2.06291e-08
-1.57071e-08
2.82916e-08
-1.53818e-08
3.57762e-08
-1.49664e-08
4.30402e-08
-1.44557e-08
5.00376e-08
-1.3843e-08
5.67183e-08
-1.31209e-08
6.30276e-08
-1.22814e-08
6.89065e-08
-1.13173e-08
7.42921e-08
-1.02226e-08
7.91182e-08
-8.99409e-09
8.33168e-08
-7.63183e-09
8.68201e-08
-6.14058e-09
8.95625e-08
-4.53058e-09
9.14836e-08
-2.81823e-09
9.25339e-08
-1.02656e-09
9.26705e-08
8.12457e-10
9.18722e-08
2.66305e-09
9.01354e-08
4.48188e-09
8.74796e-08
6.22178e-09
8.39495e-08
7.83345e-09
7.96164e-08
9.26798e-09
7.45777e-08
1.04801e-08
6.89548e-08
1.14316e-08
6.28886e-08
1.20945e-08
5.65338e-08
1.2454e-08
5.00511e-08
1.25099e-08
4.35986e-08
1.22775e-08
3.73237e-08
1.17856e-08
3.13555e-08
1.10751e-08
2.5799e-08
1.01943e-08
2.07314e-08
9.19597e-09
1.62013e-08
8.13286e-09
1.22285e-08
7.05515e-09
8.80702e-09
6.00806e-09
5.90798e-09
5.03039e-09
3.48416e-09
4.15323e-09
1.47499e-09
3.39877e-09
-1.87773e-10
2.77916e-09
-1.57426e-09
2.2959e-09
-2.75085e-09
1.94013e-09
-3.77554e-09
1.69446e-09
-4.69491e-09
1.53585e-09
-5.5427e-09
1.43872e-09
-6.34004e-09
1.37822e-09
-7.09698e-09
1.33273e-09
-7.81478e-09
1.28537e-09
-8.4886e-09
1.22456e-09
-9.10999e-09
1.14374e-09
-9.66909e-09
1.04059e-09
-1.01563e-08
9.16071e-10
-1.05636e-08
7.73436e-10
-1.08851e-08
6.1737e-10
-1.11176e-08
4.53272e-10
-1.12607e-08
2.86722e-10
-1.13167e-08
1.23068e-10
-1.12902e-08
-3.28574e-11
-1.11879e-08
-1.76997e-10
-1.10179e-08
-3.06056e-10
-1.07896e-08
-4.17701e-10
-1.05131e-08
-5.10486e-10
-1.01987e-08
-5.8382e-10
-9.8564e-09
-6.37884e-10
-9.49589e-09
-6.73517e-10
-9.12608e-09
-6.92089e-10
-8.75493e-09
-6.95362e-10
-8.38934e-09
-6.85355e-10
-8.03511e-09
-6.6422e-10
-7.69689e-09
-6.34128e-10
-7.37826e-09
-5.97181e-10
-7.08177e-09
-5.5534e-10
-6.80906e-09
-5.10376e-10
-6.56095e-09
-4.63836e-10
-6.33759e-09
-4.17031e-10
-6.13859e-09
-3.71036e-10
-5.96307e-09
-3.26699e-10
-5.80985e-09
-2.84662e-10
-5.6775e-09
-2.45377e-10
-5.56442e-09
-2.09141e-10
-5.46893e-09
-1.76113e-10
-5.38933e-09
-1.46346e-10
-5.32392e-09
-1.19805e-10
-5.27105e-09
-9.63882e-11
-5.22915e-09
-7.59492e-11
-5.19674e-09
-5.83059e-11
-5.17246e-09
-4.32557e-11
-5.15503e-09
-3.05845e-11
-5.14331e-09
-2.0073e-11
-5.13626e-09
-1.15017e-11
-5.13295e-09
-4.65396e-12
-5.13259e-09
6.74677e-13
-5.13447e-09
4.69052e-12
-5.13798e-09
7.59668e-12
-5.14263e-09
9.58337e-12
-5.14802e-09
1.08383e-11
-5.15385e-09
1.1544e-11
-5.1599e-09
1.1875e-11
-5.16603e-09
1.19903e-11
-5.1722e-09
1.20227e-11
-5.17836e-09
1.20611e-11
-5.1845e-09
1.21274e-11
-5.19056e-09
1.21464e-11
-5.19636e-09
1.19128e-11
-5.20153e-09
1.10574e-11
-5.20538e-09
9.0175e-12
-5.20682e-09
5.01493e-12
-5.20424e-09
-1.95139e-12
-5.19537e-09
-1.31237e-11
-5.17719e-09
-2.99693e-11
-5.14577e-09
-5.42467e-11
-5.09611e-09
-8.81367e-11
-5.02181e-09
-1.34612e-10
-4.91451e-09
-1.9846e-10
-4.76317e-09
-2.88228e-10
-4.55067e-09
-4.19e-10
-6.19187e-10
-4.2789e-09
1.30777e-11
-2.30042e-10
-1.51412e-11
-4.27129e-10
-1.40008e-10
-4.07478e-10
-4.0583e-10
-2.11737e-10
-8.48505e-10
1.2645e-10
-1.49735e-09
5.78535e-10
-2.37653e-09
1.12063e-09
-3.50605e-09
1.73301e-09
-4.90263e-09
2.39978e-09
-6.58033e-09
3.1084e-09
-8.55099e-09
3.84924e-09
-1.08246e-08
4.61502e-09
-1.34093e-08
5.40031e-09
-1.63116e-08
6.20096e-09
-1.95362e-08
7.01358e-09
-2.30855e-08
7.83499e-09
-2.69597e-08
8.66172e-09
-3.11557e-08
9.4895e-09
-3.56671e-08
1.03129e-08
-4.04833e-08
1.11249e-08
-4.55888e-08
1.19168e-08
-5.0963e-08
1.26781e-08
-5.65791e-08
1.33962e-08
-6.24042e-08
1.40573e-08
-6.83991e-08
1.46459e-08
-7.45181e-08
1.51459e-08
-8.07096e-08
1.55405e-08
-8.69164e-08
1.58133e-08
-9.30766e-08
1.59485e-08
-9.91244e-08
1.59317e-08
-1.04992e-07
1.57503e-08
-1.10609e-07
1.53943e-08
-1.15907e-07
1.48564e-08
-1.20818e-07
1.41325e-08
-1.25277e-07
1.32222e-08
-1.29223e-07
1.21283e-08
-1.32601e-07
1.08574e-08
-1.35361e-07
9.41939e-09
-1.37462e-07
7.82767e-09
-1.38867e-07
6.09846e-09
-1.39553e-07
4.25065e-09
-1.39499e-07
2.30534e-09
-1.38696e-07
2.85458e-10
-1.37143e-07
-1.78469e-09
-1.34846e-07
-3.88024e-09
-1.3182e-07
-5.9762e-09
-1.28086e-07
-8.04808e-09
-1.2367e-07
-1.00723e-08
-1.18607e-07
-1.20265e-08
-1.12935e-07
-1.38903e-08
-1.06696e-07
-1.56455e-08
-9.99372e-08
-1.72765e-08
-9.27069e-08
-1.87705e-08
-8.50558e-08
-2.01179e-08
-7.70353e-08
-2.1312e-08
-6.86966e-08
-2.23496e-08
-6.00901e-08
-2.32299e-08
-5.12644e-08
-2.39552e-08
-4.22662e-08
-2.45294e-08
-3.31396e-08
-2.49583e-08
-2.3926e-08
-2.52484e-08
-1.46643e-08
-2.54063e-08
-5.3912e-09
-2.54379e-08
3.85845e-09
-2.53478e-08
1.30507e-08
-2.51377e-08
2.21512e-08
-2.48076e-08
3.11243e-08
-2.43549e-08
3.99322e-08
-2.37743e-08
4.85338e-08
-2.30573e-08
5.68836e-08
-2.21929e-08
6.49311e-08
-2.11683e-08
7.26197e-08
-1.99701e-08
7.9887e-08
-1.85846e-08
8.66644e-08
-1.7e-08
9.28778e-08
-1.52075e-08
9.84488e-08
-1.32028e-08
1.03296e-07
-1.09876e-08
1.07336e-07
-8.5711e-09
1.1049e-07
-5.97154e-09
1.1268e-07
-3.21708e-09
1.13839e-07
-3.46866e-10
1.13914e-07
2.58867e-09
1.12867e-07
5.52842e-09
1.10687e-07
8.40214e-09
1.07387e-07
1.11329e-08
1.03015e-07
1.36405e-08
9.76495e-08
1.58456e-08
9.14056e-08
1.76755e-08
8.44303e-08
1.90697e-08
7.68984e-08
1.99859e-08
6.90041e-08
2.04042e-08
6.09515e-08
2.03301e-08
5.29423e-08
1.97948e-08
4.51648e-08
1.88527e-08
3.77824e-08
1.75767e-08
3.09264e-08
1.60519e-08
2.46907e-08
1.43686e-08
1.913e-08
1.26159e-08
1.42611e-08
1.08769e-08
1.00669e-08
9.22456e-09
6.50177e-09
7.71835e-09
3.49861e-09
6.40192e-09