/*--------------------------------*- C++ -*----------------------------------*\
  =========                 |
  \\      /  F ield         | OpenFOAM: The Open Source CFD Toolbox
   \\    /   O peration     | Website:  https://openfoam.org
    \\  /    A nd           | Version:  8
     \\/     M anipulation  |
\*---------------------------------------------------------------------------*/
FoamFile
{
    version     2.0;
    format      ascii;
    class       volVectorField;
    location    "0.82";
    object      U;
}
// * * * * * * * * * * * * * * * * * * * * * * * * * * * * * * * * * * * * * //

dimensions      [0 1 -1 0 0 0 0];

internalField   nonuniform List<vector> 
12225
(
(-8.0262e-06 1.09099e-06 0)
(-3.85363e-06 -6.0339e-07 0)
(3.08259e-05 -1.54312e-06 0)
(8.70484e-05 -2.37194e-06 0)
(0.000160884 -3.08386e-06 0)
(0.000249069 -3.76402e-06 0)
(0.000349753 -4.44023e-06 0)
(0.000461634 -5.14155e-06 0)
(0.00058386 -5.89785e-06 0)
(0.000715996 -6.75842e-06 0)
(0.000858169 -7.80936e-06 0)
(0.00101125 -9.20174e-06 0)
(0.00117708 -1.12089e-05 0)
(0.00135796 -1.42647e-05 0)
(0.00155392 -1.81294e-05 0)
(0.00175692 -1.72436e-05 0)
(0.00188604 -2.27773e-05 0)
(0.000174816 0.0011732 0)
(-1.64411e-05 2.81519e-06 0)
(5.72554e-06 -9.4092e-06 0)
(0.000110747 -2.15033e-05 0)
(0.000277349 -3.19928e-05 0)
(0.000494573 -4.13761e-05 0)
(0.000753188 -5.01894e-05 0)
(0.00104743 -5.87717e-05 0)
(0.00137291 -6.73431e-05 0)
(0.00172624 -7.60979e-05 0)
(0.00210474 -8.52916e-05 0)
(0.00250635 -9.52919e-05 0)
(0.00292931 -0.000106548 0)
(0.00337063 -0.000119281 0)
(0.00382058 -0.000131959 0)
(0.00424629 -0.000133861 0)
(0.00453796 -6.84355e-05 0)
(0.00437864 0.000307043 0)
(0.00106163 0.00293285 0)
(-1.90754e-05 3.35133e-06 0)
(3.11777e-05 -3.0036e-05 0)
(0.000210055 -6.48897e-05 0)
(0.000487977 -9.55025e-05 0)
(0.000847796 -0.000123086 0)
(0.00127472 -0.000148903 0)
(0.00175875 -0.000173809 0)
(0.00229181 -0.000198286 0)
(0.00286696 -0.000222658 0)
(0.0034776 -0.00024722 0)
(0.00411676 -0.000272172 0)
(0.00477535 -0.000297074 0)
(0.00543738 -0.000318936 0)
(0.00606703 -0.000325916 0)
(0.0065762 -0.000275062 0)
(0.00673092 -1.15469e-05 0)
(0.0060328 0.00101278 0)
(0.00210548 0.0050434 0)
(-1.73406e-05 2.45274e-07 0)
(7.03694e-05 -6.61679e-05 0)
(0.000326504 -0.000136603 0)
(0.000715761 -0.000199159 0)
(0.00121568 -0.000255782 0)
(0.00180637 -0.00030862 0)
(0.00247336 -0.000359158 0)
(0.00320423 -0.000408087 0)
(0.00398734 -0.000455623 0)
(0.00481042 -0.000501576 0)
(0.00565881 -0.00054489 0)
(0.00651168 -0.000581912 0)
(0.00733359 -0.000601387 0)
(0.00805472 -0.000570386 0)
(0.00852881 -0.000393024 0)
(0.00843454 0.00021024 0)
(0.00723133 0.00204643 0)
(0.00325846 0.00729077 0)
(-1.24485e-05 -9.36265e-06 0)
(0.000120791 -0.000121328 0)
(0.000456912 -0.000240225 0)
(0.000956226 -0.00034688 0)
(0.00159172 -0.000443745 0)
(0.00233887 -0.000533854 0)
(0.00317854 -0.000619259 0)
(0.00409335 -0.000700609 0)
(0.00506589 -0.000777486 0)
(0.00607651 -0.000848234 0)
(0.00710037 -0.000908736 0)
(0.0081017 -0.000948771 0)
(0.00902225 -0.000942705 0)
(0.00975813 -0.000826391 0)
(0.0101186 -0.000439235 0)
(0.00975318 0.000614867 0)
(0.00819224 0.00328084 0)
(0.00447459 0.00945466 0)
(-5.41145e-06 -2.81715e-05 0)
(0.000179545 -0.000199344 0)
(0.000597072 -0.000379713 0)
(0.0012034 -0.000542835 0)
(0.00196749 -0.000691346 0)
(0.00286067 -0.000829014 0)
(0.00385902 -0.000958195 0)
(0.00493968 -0.00107902 0)
(0.00607851 -0.0011896 0)
(0.00724715 -0.00128539 0)
(0.00840894 -0.00135687 0)
(0.00951171 -0.00138341 0)
(0.0104749 -0.0013193 0)
(0.0111676 -0.00106273 0)
(0.0113777 -0.000388933 0)
(0.0107785 0.00118188 0)
(0.00903179 0.00461298 0)
(0.00571603 0.0114463 0)
(2.90254e-06 -5.86623e-05 0)
(0.000243365 -0.000304127 0)
(0.000741755 -0.000559127 0)
(0.0014498 -0.000791112 0)
(0.00233266 -0.00100263 0)
(0.003358 -0.00119791 0)
(0.00449709 -0.00137913 0)
(0.00572127 -0.0015452 0)
(0.00699905 -0.00169162 0)
(0.00829263 -0.00180925 0)
(0.00955301 -0.00188052 0)
(0.0107124 -0.00187088 0)
(0.0116721 -0.00171059 0)
(0.0122861 -0.0012592 0)
(0.0123455 -0.000239237 0)
(0.0115841 0.00187011 0)
(0.0098088 0.00596447 0)
(0.00695661 0.0132351 0)
(1.17386e-05 -0.000103024 0)
(0.000308668 -0.000439299 0)
(0.000884749 -0.000782088 0)
(0.00168638 -0.00109503 0)
(0.00267495 -0.00138049 0)
(0.00381485 -0.00164276 0)
(0.00507275 -0.00188321 0)
(0.00641411 -0.00209859 0)
(0.00779998 -0.00228045 0)
(0.00918316 -0.00241316 0)
(0.0105033 -0.00246875 0)
(0.0116797 -0.00239609 0)
(0.0126027 -0.00210036 0)
(0.0131246 -0.00140694 0)
(0.0130608 -4.2389e-06 0)
(0.0122226 0.00262836 0)
(0.0105459 0.00726956 0)
(0.00817448 0.0148007 0)
(2.04401e-05 -0.000162984 0)
(0.000371634 -0.000607809 0)
(0.00101898 -0.0010513 0)
(0.0019027 -0.00145661 0)
(0.00298028 -0.00182604 0)
(0.00421327 -0.00216354 0)
(0.0055641 -0.00246891 0)
(0.00699271 -0.00273564 0)
(0.00845317 -0.0029499 0)
(0.00988992 -0.00308783 0)
(0.0112334 -0.00310921 0)
(0.0123949 -0.00294541 0)
(0.0132619 -0.00247841 0)
(0.0136976 -0.0015084 0)
(0.0135556 0.000289165 0)
(0.0127255 0.00340164 0)
(0.0112417 0.00847106 0)
(0.00934617 0.016124 0)
(2.84251e-05 -0.000239597 0)
(0.000428303 -0.000811465 0)
(0.00113668 -0.00136801 0)
(0.0020871 -0.00187594 0)
(0.00323302 -0.00233802 0)
(0.00453366 -0.00275744 0)
(0.00594785 -0.00313156 0)
(0.00743079 -0.0034495 0)
(0.00893075 -0.00369073 0)
(0.0103858 -0.00382179 0)
(0.0117207 -0.00378939 0)
(0.012844 -0.00350821 0)
(0.0136487 -0.00284174 0)
(0.0140187 -0.00157649 0)
(0.0138511 0.000605076 0)
(0.0131044 0.00413491 0)
(0.0118779 0.00951909 0)
(0.0104436 0.0171856 0)
(3.51768e-05 -0.000333119 0)
(0.000474689 -0.00105036 0)
(0.00122965 -0.00173132 0)
(0.00222706 -0.00235056 0)
(0.00341648 -0.0029121 0)
(0.00475539 -0.00341814 0)
(0.00619999 -0.00386278 0)
(0.00770206 -0.00422975 0)
(0.00920591 -0.00449077 0)
(0.010646 -0.00460204 0)
(0.0119454 -0.00449754 0)
(0.0130161 -0.00407785 0)
(0.0137629 -0.00319459 0)
(0.0140959 -0.00163261 0)
(0.0139554 0.000902499 0)
(0.0133528 0.00477574 0)
(0.0124238 0.0103701 0)
(0.0114319 0.0179647 0)
(3.99403e-05 -0.000433843 0)
(0.000504379 -0.00129959 0)
(0.00128472 -0.00210359 0)
(0.00230302 -0.00283093 0)
(0.0035057 -0.00348782 0)
(0.00484941 -0.00407551 0)
(0.00628912 -0.00458457 0)
(0.00777507 -0.00499305 0)
(0.00925018 -0.005265 0)
(0.0106486 -0.00534728 0)
(0.0118959 -0.0051635 0)
(0.0129114 -0.00460491 0)
(0.0136156 -0.00351894 0)
(0.0139438 -0.00169875 0)
(0.0138705 0.00111894 0)
(0.0134412 0.0052354 0)
(0.012804 0.0109373 0)
(0.0121987 0.0184036 0)
(4.35976e-05 -0.000544839 0)
(0.000520682 -0.00156903 0)
(0.00130819 -0.00250062 0)
(0.00232527 -0.00333826 0)
(0.00351566 -0.00409124 0)
(0.00483602 -0.00476 0)
(0.00624142 -0.00533127 0)
(0.0076822 -0.00577716 0)
(0.00910204 -0.00605409 0)
(0.0104375 -0.00610024 0)
(0.0116197 -0.00583084 0)
(0.0125785 -0.00513149 0)
(0.0132516 -0.00385102 0)
(0.0135987 -0.00179747 0)
(0.0136216 0.00125663 0)
(0.0133875 0.00555146 0)
(0.0130443 0.0112931 0)
(0.0128023 0.0185861 0)
(4.60046e-05 -0.000682159 0)
(0.000519166 -0.00189918 0)
(0.00128761 -0.00298043 0)
(0.00227055 -0.00394501 0)
(0.00341015 -0.00480705 0)
(0.00466442 -0.00556622 0)
(0.00599046 -0.00620482 0)
(0.00734116 -0.00668814 0)
(0.008664 -0.00696441 0)
(0.00990168 -0.00696344 0)
(0.0109951 -0.00659394 0)
(0.0118889 -0.00573999 0)
(0.0125409 -0.00425851 0)
(0.0129346 -0.00198084 0)
(0.0130947 0.00127736 0)
(0.0130999 0.00569335 0)
(0.0130874 0.0114005 0)
(0.0132335 0.0184446 0)
(4.5659e-05 -0.000844312 0)
(0.000487733 -0.00228659 0)
(0.00119514 -0.00353642 0)
(0.00209215 -0.00464067 0)
(0.00312259 -0.00562087 0)
(0.00424816 -0.00647632 0)
(0.00543097 -0.00718471 0)
(0.00663002 -0.00770434 0)
(0.00780072 -0.00797562 0)
(0.00889646 -0.00792164 0)
(0.0098723 -0.00744802 0)
(0.0106909 -0.00644289 0)
(0.011331 -0.00477846 0)
(0.0117969 -0.00231639 0)
(0.0121281 0.00108071 0)
(0.012405 0.00553041 0)
(0.0127456 0.0111051 0)
(0.0132908 0.0178071 0)
(4.06135e-05 -0.00102136 0)
(0.000411217 -0.0027073 0)
(0.000996069 -0.00413382 0)
(0.00173191 -0.00538069 0)
(0.00257038 -0.00647976 0)
(0.00348069 -0.007431 0)
(0.00443401 -0.00820822 0)
(0.00539994 -0.00876369 0)
(0.00634666 -0.00903187 0)
(0.00724286 -0.00893227 0)
(0.00806137 -0.00837212 0)
(0.00878439 -0.00724944 0)
(0.00940968 -0.00545761 0)
(0.0099567 -0.00289232 0)
(0.0104713 0.000538029 0)
(0.0110261 0.00489903 0)
(0.0117156 0.010216 0)
(0.0126467 0.016462 0)
(2.87713e-05 -0.0011873 0)
(0.000273573 -0.00309958 0)
(0.000654093 -0.00468601 0)
(0.00112907 -0.00605887 0)
(0.00166716 -0.00726229 0)
(0.0022504 -0.00829853 0)
(0.00286363 -0.00913946 0)
(0.00349185 -0.00973396 0)
(0.00412056 -0.010014 0)
(0.00473743 -0.00989973 0)
(0.00533512 -0.00930496 0)
(0.00591473 -0.00814211 0)
(0.00648947 -0.00632832 0)
(0.00708756 -0.00379226 0)
(0.00775327 -0.00048173 0)
(0.0085455 0.0036284 0)
(0.0095344 0.00853047 0)
(0.0107962 0.0141798 0)
(8.34221e-06 -0.00128983 0)
(6.39325e-05 -0.00334062 0)
(0.000146076 -0.00502249 0)
(0.000245553 -0.00646983 0)
(0.000358268 -0.00773716 0)
(0.000484723 -0.00883054 0)
(0.000627392 -0.00972303 0)
(0.0007902 -0.0103644 0)
(0.000978899 -0.0106887 0)
(0.00120198 -0.0106216 0)
(0.00147202 -0.010087 0)
(0.00180713 -0.00901314 0)
(0.00223223 -0.00733912 0)
(0.00277959 -0.00502026 0)
(0.00348812 -0.00203307 0)
(0.00440141 0.00162111 0)
(0.00556591 0.00591397 0)
(0.00703229 0.0107932 0)
(-2.17365e-05 -0.00124172 0)
(-0.000208165 -0.00322635 0)
(-0.000502049 -0.00485927 0)
(-0.000873781 -0.0062704 0)
(-0.0012941 -0.00751543 0)
(-0.00174148 -0.00860405 0)
(-0.0021949 -0.00951443 0)
(-0.00263117 -0.0102027 0)
(-0.00302445 -0.0106112 0)
(-0.00334626 -0.0106755 0)
(-0.00356567 -0.0103317 0)
(-0.0036496 -0.00952276 0)
(-0.00356345 -0.00820368 0)
(-0.00327208 -0.0063462 0)
(-0.00274119 -0.00394143 0)
(-0.00193877 -0.00100125 0)
(-0.000835309 0.00244199 0)
(0.000598032 0.00633617 0)
(-4.2369e-05 -0.00102046 0)
(-0.000411457 -0.00269715 0)
(-0.000994343 -0.00410739 0)
(-0.00173444 -0.00534435 0)
(-0.00258097 -0.00645117 0)
(-0.00350018 -0.00743784 0)
(-0.0044602 -0.00828921 0)
(-0.00542628 -0.00897142 0)
(-0.00636017 -0.0094382 0)
(-0.00722067 -0.00963719 0)
(-0.00796458 -0.00951601 0)
(-0.00854815 -0.00902785 0)
(-0.00892869 -0.00813619 0)
(-0.00906638 -0.0068184 0)
(-0.00892613 -0.00506786 0)
(-0.00847887 -0.00289475 0)
(-0.00770069 -0.000325523 0)
(-0.00657028 0.00259855 0)
(-5.031e-05 -0.000772567 0)
(-0.000503534 -0.00210772 0)
(-0.00122718 -0.0032664 0)
(-0.00215443 -0.00429809 0)
(-0.00322744 -0.00523136 0)
(-0.00440875 -0.00607553 0)
(-0.00566285 -0.00682145 0)
(-0.00695102 -0.00744465 0)
(-0.00823064 -0.0079098 0)
(-0.00945561 -0.00817563 0)
(-0.0105776 -0.00819989 0)
(-0.0115478 -0.00794404 0)
(-0.0123192 -0.0073772 0)
(-0.0128482 -0.00647928 0)
(-0.0130974 -0.00524277 0)
(-0.0130367 -0.00367338 0)
(-0.0126428 -0.00178966 0)
(-0.0118968 0.000377863 0)
(-4.88317e-05 -0.000534038 0)
(-0.00051448 -0.00153565 0)
(-0.00127373 -0.00244031 0)
(-0.00226043 -0.00325678 0)
(-0.0034181 -0.00400099 0)
(-0.00470988 -0.00468158 0)
(-0.00610049 -0.00529456 0)
(-0.00755171 -0.00582384 0)
(-0.00902139 -0.00624411 0)
(-0.0104636 -0.00652442 0)
(-0.0118298 -0.00663205 0)
(-0.0130703 -0.00653619 0)
(-0.0141365 -0.00621119 0)
(-0.0149834 -0.0056391 0)
(-0.0155714 -0.0048113 0)
(-0.0158685 -0.00372914 0)
(-0.0158496 -0.00240384 0)
(-0.0154959 -0.000856293 0)
(-4.05218e-05 -0.000335722 0)
(-0.000466308 -0.00104945 0)
(-0.00118455 -0.0017242 0)
(-0.00213609 -0.00233897 0)
(-0.00327 -0.00290123 0)
(-0.00455181 -0.00341913 0)
(-0.00594856 -0.0038925 0)
(-0.00742516 -0.00431187 0)
(-0.00894312 -0.00466021 0)
(-0.0104602 -0.00491547 0)
(-0.0119311 -0.00505347 0)
(-0.0133086 -0.00505069 0)
(-0.0145461 -0.00488674 0)
(-0.015599 -0.00454635 0)
(-0.0164274 -0.00402079 0)
(-0.016998 -0.00330842 0)
(-0.0172841 -0.00241487 0)
(-0.0172657 -0.00135322 0)
(-2.81125e-05 -0.000188175 0)
(-0.000382565 -0.000672603 0)
(-0.00101247 -0.00115293 0)
(-0.00186785 -0.00159218 0)
(-0.00290437 -0.00199356 0)
(-0.00409044 -0.00236473 0)
(-0.00539646 -0.00270784 0)
(-0.00679195 -0.00301807 0)
(-0.00824385 -0.00328467 0)
(-0.00971566 -0.00349277 0)
(-0.0111676 -0.00362544 0)
(-0.0125577 -0.00366565 0)
(-0.0138432 -0.00359813 0)
(-0.0149828 -0.00341076 0)
(-0.0159383 -0.00309573 0)
(-0.0166765 -0.00265005 0)
(-0.0171703 -0.00207569 0)
(-0.0173993 -0.00138 0)
(-1.41235e-05 -8.95111e-05 0)
(-0.000283982 -0.000401668 0)
(-0.000802643 -0.000725465 0)
(-0.00152858 -0.00102066 0)
(-0.0024235 -0.00128917 0)
(-0.00345882 -0.00153785 0)
(-0.00460896 -0.00176979 0)
(-0.00584873 -0.00198302 0)
(-0.00715124 -0.00217122 0)
(-0.00848669 -0.00232497 0)
(-0.00982211 -0.0024331 0)
(-0.011122 -0.00248408 0)
(-0.0123496 -0.0024672 0)
(-0.0134684 -0.00237363 0)
(-0.0144438 -0.00219713 0)
(-0.0152448 -0.00193455 0)
(-0.0158454 -0.00158591 0)
(-0.0162258 -0.00115475 0)
(-7.5195e-07 -3.14225e-05 0)
(-0.000186913 -0.000220029 0)
(-0.000589105 -0.000423103 0)
(-0.0011722 -0.000606413 0)
(-0.00190318 -0.000771915 0)
(-0.00275688 -0.000925182 0)
(-0.00371215 -0.00106919 0)
(-0.00474928 -0.00120346 0)
(-0.00584766 -0.00132459 0)
(-0.0069843 -0.00142702 0)
(-0.00813341 -0.00150397 0)
(-0.00926667 -0.00154821 0)
(-0.0103541 -0.00155289 0)
(-0.0113653 -0.00151212 0)
(-0.0122709 -0.00142148 0)
(-0.0130437 -0.00127838 0)
(-0.0136601 -0.00108209 0)
(-0.0141023 -0.000833899 0)
(1.00657e-05 -3.22238e-06 0)
(-0.000103156 -0.000106968 0)
(-0.000394748 -0.000221365 0)
(-0.00083426 -0.000322967 0)
(-0.00139381 -0.000413832 0)
(-0.00205237 -0.0004979 0)
(-0.00279357 -0.000577406 0)
(-0.00360301 -0.000652476 0)
(-0.00446593 -0.000721458 0)
(-0.00536584 -0.000781426 0)
(-0.00628388 -0.000828678 0)
(-0.0071989 -0.000859198 0)
(-0.0080881 -0.000869072 0)
(-0.00892787 -0.000854843 0)
(-0.00969487 -0.000813799 0)
(-0.0103671 -0.000744168 0)
(-0.0109247 -0.000645185 0)
(-0.0113528 -0.000517036 0)
(1.65146e-05 5.80395e-06 0)
(-4.04021e-05 -4.28953e-05 0)
(-0.000232943 -9.67468e-05 0)
(-0.000535166 -0.00014354 0)
(-0.000925098 -0.000184922 0)
(-0.00138678 -0.000223157 0)
(-0.00190872 -0.000259548 0)
(-0.00248144 -0.000294312 0)
(-0.00309541 -0.000326787 0)
(-0.0037399 -0.000355685 0)
(-0.00440241 -0.000379325 0)
(-0.00506862 -0.000395847 0)
(-0.00572277 -0.000403402 0)
(-0.00634824 -0.000400319 0)
(-0.00692829 -0.000385234 0)
(-0.00744678 -0.000357192 0)
(-0.00788881 -0.000315674 0)
(-0.00824313 -0.000260462 0)
(1.67395e-05 5.20945e-06 0)
(-2.94645e-06 -1.16759e-05 0)
(-0.000109721 -2.95799e-05 0)
(-0.000284178 -4.46757e-05 0)
(-0.000511716 -5.78304e-05 0)
(-0.00078229 -6.99622e-05 0)
(-0.00108923 -8.15932e-05 0)
(-0.00142735 -9.28483e-05 0)
(-0.00179158 -0.000103546 0)
(-0.00217611 -0.000113288 0)
(-0.00257402 -0.000121539 0)
(-0.00297724 -0.000127694 0)
(-0.00337668 -0.000131143 0)
(-0.00376256 -0.000131319 0)
(-0.00412488 -0.000127745 0)
(-0.00445382 -0.000120064 0)
(-0.00474004 -0.000108038 0)
(-0.00497647 -9.14097e-05 0)
(8.9699e-06 1.83429e-06 0)
(7.67127e-06 -5.60615e-07 0)
(-2.58449e-05 -2.04544e-06 0)
(-8.29984e-05 -3.21423e-06 0)
(-0.000158258 -4.18924e-06 0)
(-0.000248052 -5.08531e-06 0)
(-0.000350214 -5.96011e-06 0)
(-0.000463184 -6.83216e-06 0)
(-0.00058547 -7.69219e-06 0)
(-0.000715335 -8.51212e-06 0)
(-0.000850645 -9.25119e-06 0)
(-0.00098883 -9.86207e-06 0)
(-0.00112693 -1.02947e-05 0)
(-0.00126171 -1.05012e-05 0)
(-0.00138978 -1.04393e-05 0)
(-0.00150776 -1.00795e-05 0)
(-0.0016123 -9.36788e-06 0)
(-0.00170083 -8.23766e-06 0)
(1.34369e-05 -3.11547e-05 7.5837e-24)
(9.57484e-05 -7.31253e-05 -1.00532e-23)
(0.000228897 -9.75662e-05 0)
(0.000390984 -0.000107496 0)
(0.000555094 -0.000107251 0)
(0.000701989 -0.00010004 8.42067e-24)
(0.000818273 -8.83545e-05 0)
(0.000894477 -7.41314e-05 0)
(0.000924088 -5.87786e-05 0)
(0.00090292 -4.32287e-05 0)
(0.000828502 -2.80563e-05 -5.65562e-25)
(0.000699464 -1.35476e-05 0)
(0.000515121 2.29187e-07 0)
(0.000275111 1.3358e-05 0)
(-2.08835e-05 2.6024e-05 0)
(-0.000373325 3.84745e-05 1.18315e-23)
(-0.000782921 5.09877e-05 0)
(-0.00125066 6.38431e-05 0)
(-0.00177779 7.72971e-05 0)
(-0.00236573 9.15646e-05 0)
(-0.00301592 0.000106805 0)
(-0.0037297 0.000123115 0)
(-0.00450808 0.000140519 0)
(-0.00535155 0.00015897 3.74314e-23)
(-0.00625983 0.000178344 -4.07573e-23)
(-0.00723173 0.000198446 4.39952e-23)
(-0.0082649 0.000219005 4.70927e-23)
(-0.00935565 0.000239685 0)
(-0.0104988 0.000260079 0)
(-0.0116878 0.000279725 -5.49251e-23)
(-0.012914 0.000298105 -5.68158e-23)
(-0.0141674 0.000314659 0)
(-0.0154364 0.000328798 0)
(-0.0167074 0.000339919 -5.92493e-23)
(-0.0179656 0.000347427 0)
(-0.019195 0.000350752 0)
(-0.0203783 0.000349381 5.52156e-23)
(-0.0214976 0.000342876 0)
(-0.0225348 0.000330903 4.8073e-23)
(-0.0234714 0.000313254 8.60815e-23)
(-0.0242897 0.000289866 0)
(-0.0249726 0.000260838 0)
(-0.0255047 0.000226426 0)
(-0.0258719 0.000187049 0)
(-0.0260626 0.000143324 0)
(-0.0260668 9.61351e-05 -1.42124e-23)
(-0.0258778 4.60448e-05 -3.65063e-23)
(-0.0254919 -5.95565e-06 -5.98424e-23)
(-0.0249084 -5.87632e-05 0)
(-0.0241293 -0.000111321 1.08481e-22)
(-0.0231599 -0.000162613 0)
(-0.0220079 -0.000211681 -1.57583e-22)
(-0.0206838 -0.000257661 -1.81451e-22)
(-0.0192001 -0.000299812 0)
(-0.0175712 -0.000337539 0)
(-0.0158129 -0.000370404 0)
(-0.0139418 -0.000398134 -2.64434e-22)
(-0.0119751 -0.000420606 0)
(-0.00993034 -0.000437837 0)
(-0.00782463 -0.000449955 0)
(-0.00567485 -0.000457166 0)
(-0.00349733 -0.000459709 0)
(-0.00130797 -0.000457735 0)
(0.000877888 -0.000451188 0)
(0.00304587 -0.000440233 0)
(0.00518126 -0.000425324 3.0396e-22)
(0.00726918 -0.00040676 0)
(0.00929474 -0.000384635 0)
(0.0112426 -0.000358947 -2.60029e-22)
(0.0130966 -0.000329659 -2.40439e-22)
(0.01484 -0.000296733 0)
(0.0164549 -0.000260179 1.95271e-22)
(0.0179229 -0.000220099 -1.70289e-22)
(0.0192252 -0.000176727 0)
(0.0203431 -0.000130464 1.17269e-22)
(0.0212585 -8.19105e-05 0)
(0.021955 -3.1865e-05 0)
(0.0224187 1.86695e-05 -3.61381e-23)
(0.0226391 6.84848e-05 0)
(0.0226096 0.000116229 -1.40026e-23)
(0.0223297 0.000160428 0)
(0.0218049 0.000200021 5.71085e-23)
(0.0210466 0.000233711 7.5204e-23)
(0.0200729 0.000260463 9.06792e-23)
(0.0189083 0.000279559 2.068e-22)
(0.0175831 0.000290631 -2.26645e-22)
(0.0161323 0.000293708 0)
(0.014594 0.000289214 0)
(0.0130077 0.000277934 0)
(0.0114127 0.000260947 -2.54387e-22)
(0.00984611 0.000239529 -2.50761e-22)
(0.00834101 0.000215046 2.44178e-22)
(0.00692537 0.000188842 0)
(0.00562107 0.000162139 -2.24886e-22)
(0.00444355 0.000135969 -2.13451e-22)
(0.00340183 0.000111135 -2.01564e-22)
(0.00249903 8.82175e-05 0)
(0.00173296 6.76124e-05 0)
(0.00109685 4.95879e-05 0)
(0.000580091 3.43326e-05 -1.57314e-22)
(0.00016894 2.19797e-05 0)
(-0.000152722 1.25969e-05 0)
(-0.000402431 6.14789e-06 1.33693e-22)
(-0.000598015 2.44411e-06 0)
(-0.000756369 1.13101e-06 0)
(-0.000892318 1.71192e-06 1.19979e-22)
(-0.00101773 3.60247e-06 0)
(-0.00114104 6.2048e-06 0)
(-0.00126717 8.98022e-06 -1.13448e-22)
(-0.00139794 1.15005e-05 -1.12114e-22)
(-0.00153265 1.34706e-05 0)
(-0.00166883 1.47255e-05 1.09834e-22)
(-0.00180298 1.52101e-05 0)
(-0.00193118 1.49513e-05 -1.07405e-22)
(-0.00204961 1.40307e-05 0)
(-0.00215483 1.25615e-05 -1.04365e-22)
(-0.00224406 1.06712e-05 -1.02566e-22)
(-0.00231527 8.48994e-06 0)
(-0.00236722 6.14154e-06 0)
(-0.00239943 3.72962e-06 0)
(-0.00241223 1.34795e-06 0)
(-0.00240646 -7.99475e-07 0)
(-0.00238352 -2.77916e-06 0)
(-0.00234534 -4.5157e-06 0)
(-0.00229407 -5.96234e-06 -8.40089e-23)
(-0.00223204 -7.10299e-06 8.16675e-23)
(-0.00216164 -7.93786e-06 0)
(-0.00208527 -8.47997e-06 0)
(-0.00200517 -8.75256e-06 0)
(-0.0019234 -8.78625e-06 0)
(-0.00184181 -8.61623e-06 1.43398e-22)
(-0.00176197 -8.27972e-06 0)
(-0.00168516 -7.81377e-06 -1.37293e-22)
(-0.00161242 -7.25355e-06 1.34616e-22)
(-0.00154449 -6.63109e-06 0)
(-0.00148191 -5.97447e-06 0)
(-0.00142495 -5.3074e-06 0)
(-0.00137376 -4.64919e-06 -1.25904e-22)
(-0.00132828 -4.01485e-06 -1.241e-22)
(-0.00128837 -3.41551e-06 0)
(-0.00125377 -2.85882e-06 -1.20774e-22)
(-0.00122416 -2.34951e-06 -1.19208e-22)
(-0.00119918 -1.88989e-06 1.17683e-22)
(-0.00117843 -1.48033e-06 0)
(-0.0011615 -1.11977e-06 0)
(-0.001148 -8.06042e-07 1.13202e-22)
(-0.00113752 -5.36262e-07 0)
(-0.00112969 -3.07049e-07 0)
(-0.00112415 -1.14719e-07 0)
(-0.00112058 4.46028e-08 0)
(-0.00111865 1.74601e-07 -1.05468e-22)
(-0.0011181 2.75903e-07 -1.03831e-22)
(-0.00111868 3.43541e-07 0)
(-0.00112016 3.73691e-07 -1.00452e-22)
(-0.00112236 4.18167e-07 0)
(-0.00112509 4.5343e-07 0)
(-0.0011282 4.73818e-07 -9.512e-23)
(-0.00113159 4.82331e-07 0)
(-0.00113514 4.83114e-07 -9.14056e-23)
(-0.00113879 4.79091e-07 0)
(-0.0011425 4.72815e-07 0)
(-0.00114622 4.66644e-07 -8.56302e-23)
(-0.00114997 4.62691e-07 0)
(-0.00115374 4.62632e-07 -8.16625e-23)
(-0.00115757 4.67418e-07 0)
(-0.00116148 4.76911e-07 0)
(-0.00116547 4.89482e-07 0)
(-0.00116954 5.01611e-07 7.34499e-23)
(-0.0011736 5.07404e-07 0)
(-0.00117748 4.97427e-07 -6.91665e-23)
(-0.00118091 4.58941e-07 0)
(-0.00118346 3.95453e-07 0)
(-0.00118449 3.06724e-07 0)
(-0.00118315 1.19116e-07 0)
(-0.00117833 -1.71526e-07 0)
(-0.00116851 -5.92543e-07 0)
(-0.00115138 -1.24861e-06 0)
(-0.00112297 -2.84921e-06 1.00349e-22)
(-0.00108576 -2.87484e-06 0)
(-0.00096111 -1.94119e-05 0)
(2.17182e-05 -0.00018728 -2.54296e-23)
(0.000161603 -0.000433526 3.40823e-23)
(0.00036066 -0.000565129 0)
(0.000579575 -0.000599685 -2.2664e-23)
(0.000773908 -0.000557191 0)
(0.000910109 -0.000456547 -9.03513e-24)
(0.00096294 -0.000314014 1.76206e-23)
(0.000913067 -0.000142868 1.50029e-23)
(0.000745859 4.65491e-05 0)
(0.000450514 0.000246582 8.53133e-24)
(1.91823e-05 0.000451822 6.09614e-25)
(-0.00055377 0.000658764 0)
(-0.00127248 0.000865422 0)
(-0.00214012 0.00107096 0)
(-0.00315934 0.00127536 0)
(-0.00433251 0.0014791 -1.26888e-23)
(-0.00566188 0.00168291 0)
(-0.0071496 0.00188747 3.053e-23)
(-0.00879758 0.00209327 0)
(-0.0106073 0.00230039 0)
(-0.0125794 0.00250841 -4.93577e-23)
(-0.0147133 0.00271629 0)
(-0.0170071 0.00292232 6.26386e-23)
(-0.0194566 0.00312416 -3.96044e-23)
(-0.0220551 0.00331884 4.30213e-23)
(-0.0247931 0.00350279 -4.63242e-23)
(-0.0276578 0.00367197 -4.94591e-23)
(-0.0306328 0.00382196 0)
(-0.0336982 0.00394808 0)
(-0.0368302 0.00404552 5.72342e-23)
(-0.0400012 0.00410951 -5.01823e-23)
(-0.0431803 0.0041355 0)
(-0.0463334 0.00411927 0)
(-0.0494236 0.00405716 6.11538e-23)
(-0.0524119 0.00394624 0)
(-0.0552578 0.00378439 0)
(-0.0579202 0.00357052 -5.67012e-23)
(-0.0603581 0.00330464 0)
(-0.0625315 0.00298794 4.78123e-23)
(-0.0644024 0.00262281 -8.82001e-23)
(-0.0659355 0.00221285 0)
(-0.0670991 0.0017628 0)
(-0.0678659 0.00127841 -9.68465e-23)
(-0.0682133 0.000766294 -6.26594e-23)
(-0.0681241 0.000233879 -2.47829e-23)
(-0.0675871 -0.000310802 -1.81064e-24)
(-0.0665974 -0.000859605 3.76532e-23)
(-0.0651557 -0.00140406 1.6911e-22)
(-0.0632689 -0.00193597 -1.5589e-22)
(-0.0609494 -0.00244763 -1.12692e-22)
(-0.0582151 -0.00293201 0)
(-0.0550883 -0.00338294 1.64812e-22)
(-0.0515956 -0.00379526 -1.67494e-22)
(-0.0477669 -0.00416493 0)
(-0.0436348 -0.00448904 0)
(-0.0392334 -0.00476589 0)
(-0.0345984 -0.00499483 2.82998e-22)
(-0.0297655 -0.00517623 0)
(-0.0247703 -0.0053113 -6.09567e-22)
(-0.0196479 -0.00540184 0)
(-0.0144319 -0.00545008 -6.58843e-22)
(-0.00915518 -0.00545835 0)
(-0.00384909 -0.00542874 6.83966e-22)
(0.00145527 -0.00536289 0)
(0.00672883 -0.00526219 -6.66776e-22)
(0.0119416 -0.0051279 3.08806e-22)
(0.0170634 -0.00496078 0)
(0.0220633 -0.00476083 5.81742e-22)
(0.026909 -0.00452739 2.8342e-22)
(0.0315664 -0.0042594 2.61126e-22)
(0.0359987 -0.00395565 0)
(0.0401665 -0.00361512 1.89763e-22)
(0.0440282 -0.00323727 1.83302e-22)
(0.0475397 -0.00282245 0)
(0.0506557 -0.00237218 -1.25723e-22)
(0.0533305 -0.00188951 1.77435e-22)
(0.0555198 -0.00137927 0)
(0.0571821 -0.000848177 3.86462e-23)
(0.0582812 -0.000305024 0)
(0.0587877 0.000239479 5.24335e-23)
(0.0586831 0.000774314 0)
(0.0579617 0.00128569 -1.86245e-22)
(0.0566306 0.00176023 -8.06494e-23)
(0.0547134 0.00218497 9.51713e-23)
(0.0522502 0.00254796 2.133e-22)
(0.0492975 0.00283924 -2.30717e-22)
(0.0459274 0.0030516 0)
(0.0422252 0.00318125 0)
(0.0382856 0.00322817 0)
(0.034209 0.00319621 8.10613e-22)
(0.0300964 0.00309273 2.76838e-22)
(0.0260442 0.00292808 -2.70931e-22)
(0.0221397 0.00271463 0)
(0.0184574 0.00246581 -2.23156e-22)
(0.015056 0.00219508 2.40326e-22)
(0.0119773 0.0019151 2.27948e-22)
(0.0092458 0.00163715 0)
(0.0068696 0.00137087 0)
(0.00484201 0.00112424 0)
(0.00314335 0.000903576 1.8044e-22)
(0.00174327 0.000713552 0)
(0.000603294 0.000557064 -3.1323e-22)
(-0.000320209 0.000434999 -4.54254e-22)
(-0.00107278 0.000346058 2.88399e-22)
(-0.00169839 0.000286843 0)
(-0.00223636 0.000252273 1.3318e-22)
(-0.00271902 0.000236219 0)
(-0.00317035 0.000232273 2.61815e-22)
(-0.00360571 0.000234487 -1.27305e-22)
(-0.00403256 0.000237922 -1.26123e-22)
(-0.0044519 0.000238931 0)
(-0.00485998 0.000235197 -3.78343e-22)
(-0.00525009 0.000225598 2.48949e-22)
(-0.00561413 0.000209961 1.24382e-22)
(-0.0059439 0.000188803 0)
(-0.00623198 0.000163083 1.20976e-22)
(-0.00647237 0.000134007 3.5556e-22)
(-0.00666085 0.000102871 0)
(-0.00679512 7.09567e-05 2.28031e-22)
(-0.00687476 3.94435e-05 2.2323e-22)
(-0.00690113 9.37123e-06 2.18171e-22)
(-0.00687717 -1.82727e-05 0)
(-0.00680713 -4.29561e-05 0)
(-0.00669624 -6.41833e-05 0)
(-0.00655044 -8.16688e-05 -9.88917e-23)
(-0.00637608 -9.53203e-05 -9.53433e-23)
(-0.00617962 -0.000105208 0)
(-0.00596739 -0.000111536 -1.8195e-22)
(-0.00574539 -0.000114613 -1.77449e-22)
(-0.0055191 -0.00011482 0)
(-0.00529338 -0.000112582 -1.68158e-22)
(-0.00507243 -0.00010834 -3.31358e-22)
(-0.00485968 -0.000102532 1.61287e-22)
(-0.00465788 -9.55699e-05 1.60237e-22)
(-0.00446905 -8.78309e-05 0)
(-0.00429462 -7.96467e-05 0)
(-0.00413544 -7.13e-05 0)
(-0.00399185 -6.30231e-05 1.48538e-22)
(-0.0038638 -5.49999e-05 -1.47685e-22)
(-0.00375093 -4.73694e-05 -2.9027e-22)
(-0.00365259 -4.02305e-05 1.42824e-22)
(-0.00356795 -3.36476e-05 -1.41812e-22)
(-0.00349606 -2.7656e-05 -1.39378e-22)
(-0.00343588 -2.22681e-05 0)
(-0.00338633 -1.74776e-05 0)
(-0.00334633 -1.32649e-05 1.34683e-22)
(-0.00331482 -9.60012e-06 0)
(-0.00329078 -6.44716e-06 0)
(-0.00327322 -3.76569e-06 -2.5856e-22)
(-0.00326125 -1.51339e-06 0)
(-0.00325404 3.52095e-07 -1.2565e-22)
(-0.0032508 1.86925e-06 1.23747e-22)
(-0.00325086 3.06997e-06 0)
(-0.00325358 3.98558e-06 -1.19832e-22)
(-0.00325842 4.70075e-06 0)
(-0.0032649 5.23429e-06 0)
(-0.00327261 5.60177e-06 1.1374e-22)
(-0.0032812 5.83569e-06 -2.23127e-22)
(-0.00329038 5.96782e-06 1.09442e-22)
(-0.00329995 6.02767e-06 0)
(-0.00330974 6.04284e-06 0)
(-0.00331967 6.03839e-06 -1.02625e-22)
(-0.0033297 6.03557e-06 0)
(-0.00333982 6.04947e-06 -9.79925e-23)
(-0.00335006 6.08596e-06 0)
(-0.00336044 6.13769e-06 0)
(-0.00337095 6.17981e-06 0)
(-0.00338146 6.16558e-06 -8.84615e-23)
(-0.00339168 6.02254e-06 0)
(-0.00340109 5.64914e-06 8.3412e-23)
(-0.00340883 4.91376e-06 0)
(-0.00341363 3.68394e-06 0)
(-0.00341373 1.78166e-06 -1.50847e-22)
(-0.00340675 -1.08103e-06 1.45302e-22)
(-0.00338957 -5.17133e-06 0)
(-0.00335812 -1.09179e-05 0)
(-0.00330663 -1.9185e-05 0)
(-0.00322642 -3.19749e-05 -3.66146e-22)
(-0.00311913 -5.23648e-05 0)
(-0.00286698 -0.000102276 2.19619e-22)
(1.85525e-05 -0.000360125 -3.72606e-24)
(0.000123219 -0.000785472 -5.11544e-23)
(0.000242813 -0.000964955 0)
(0.000333468 -0.00094534 4.91862e-23)
(0.000349237 -0.000768469 0)
(0.000254815 -0.000470866 0)
(2.2651e-05 -8.34387e-05 3.66063e-24)
(-0.000369298 0.000368438 -1.50096e-23)
(-0.000938703 0.000864603 -1.59338e-23)
(-0.00169964 0.00138957 -8.50336e-24)
(-0.00266329 0.00193199 0)
(-0.00383854 0.00248398 0)
(-0.00523255 0.00304044 1.45063e-24)
(-0.00685118 0.00359842 -5.74466e-24)
(-0.00869919 0.00415644 1.49282e-23)
(-0.0107804 0.00471391 0)
(-0.0130978 0.00527057 3.48868e-23)
(-0.0156531 0.00582595 -2.99822e-23)
(-0.0184469 0.00637895 0)
(-0.0214776 0.00692749 6.8644e-23)
(-0.0247419 0.00746823 4.81357e-23)
(-0.0282334 0.00799641 -9.3358e-23)
(-0.0319424 0.00850583 -6.07818e-23)
(-0.0358553 0.00898883 0)
(-0.0399544 0.00943647 1.3235e-22)
(-0.0442171 0.00983875 1.4538e-22)
(-0.0486159 0.0101849 0)
(-0.0531185 0.0104637 1.70461e-22)
(-0.0576873 0.0106638 0)
(-0.0622804 0.0107743 1.92732e-22)
(-0.0668516 0.0107851 1.04022e-22)
(-0.0713512 0.0106872 0)
(-0.0757268 0.0104731 0)
(-0.0799242 0.0101375 0)
(-0.0838885 0.00967696 0)
(-0.0875651 0.00909086 0)
(-0.0909009 0.00838105 0)
(-0.0938454 0.00755211 2.07823e-22)
(-0.0963517 0.00661131 -2.88332e-22)
(-0.0983773 0.00556846 0)
(-0.0998853 0.00443574 0)
(-0.100845 0.00322735 0)
(-0.101232 0.00195914 -2.01112e-23)
(-0.101029 0.000648298 5.96104e-23)
(-0.100225 -0.000686962 6.98176e-23)
(-0.0988193 -0.00202792 7.69227e-24)
(-0.0968157 -0.00335593 3.33358e-23)
(-0.0942256 -0.00465318 -1.02258e-22)
(-0.0910666 -0.00590297 2.55095e-23)
(-0.0873623 -0.00709004 -1.70881e-22)
(-0.0831414 -0.00820094 0)
(-0.0784373 -0.0092243 -2.68489e-22)
(-0.073287 -0.0101511 2.65647e-23)
(-0.0677303 -0.0109746 0)
(-0.0618093 -0.0116905 0)
(-0.055567 -0.0122971 4.5486e-22)
(-0.049047 -0.0127945 0)
(-0.0422926 -0.0131849 0)
(-0.0353462 -0.013472 -5.38468e-22)
(-0.0282488 -0.0136605 -1.18846e-21)
(-0.0210397 -0.0137559 6.45106e-22)
(-0.0137564 -0.0137638 0)
(-0.00643496 -0.0136891 -6.73896e-22)
(0.000889253 -0.0135363 0)
(0.00818345 -0.0133082 -6.02997e-22)
(0.015414 -0.0130067 -6.34109e-22)
(0.0225459 -0.0126325 1.15586e-21)
(0.0295434 -0.0121844 5.17885e-22)
(0.0363685 -0.0116604 0)
(0.0429805 -0.011057 -9.23172e-22)
(0.0493345 -0.0103703 0)
(0.0553818 -0.00959651 -1.1188e-21)
(0.0610694 -0.00873258 -6.26552e-22)
(0.0663398 -0.00777701 -5.1943e-22)
(0.0711323 -0.00673065 4.10612e-22)
(0.0753834 -0.00559744 -4.72578e-22)
(0.0790285 -0.0043851 0)
(0.0820036 -0.00310565 0)
(0.0842482 -0.00177583 -9.75826e-24)
(0.0857085 -0.000417108 -1.39092e-22)
(0.0863392 0.000944926 0)
(0.0861067 0.00227983 1.19913e-22)
(0.0849968 0.00355518 0)
(0.0830142 0.00473749 -5.68318e-22)
(0.0801859 0.00579369 1.06888e-23)
(0.0765638 0.00669328 -5.56715e-24)