/*--------------------------------*- C++ -*----------------------------------*\
  =========                 |
  \\      /  F ield         | OpenFOAM: The Open Source CFD Toolbox
   \\    /   O peration     | Website:  https://openfoam.org
    \\  /    A nd           | Version:  8
     \\/     M anipulation  |
\*---------------------------------------------------------------------------*/
FoamFile
{
    version     2.0;
    format      ascii;
    class       volScalarField;
    location    "0.32";
    object      p;
}
// * * * * * * * * * * * * * * * * * * * * * * * * * * * * * * * * * * * * * //

dimensions      [0 2 -2 0 0 0 0];

internalField   nonuniform List<scalar> 
12225
(
-0.0329892
-0.033245
-0.0335109
-0.0337821
-0.034076
-0.0344052
-0.0347832
-0.0352204
-0.0357441
-0.0364121
-0.0373263
-0.038629
-0.04048
-0.0430162
-0.0463288
-0.0505089
-0.0559443
-0.0654062
-0.0329884
-0.0332187
-0.0334719
-0.0337401
-0.0340375
-0.0343753
-0.0347676
-0.0352273
-0.0357841
-0.0364968
-0.0374641
-0.0388195
-0.0407083
-0.0432484
-0.0465033
-0.0505118
-0.0553694
-0.0624342
-0.0329758
-0.0331822
-0.0334205
-0.0336846
-0.0339857
-0.0343333
-0.0347421
-0.035227
-0.03582
-0.0365799
-0.0376016
-0.0390088
-0.0409308
-0.0434631
-0.0466346
-0.0504111
-0.0546049
-0.059799
-0.03295
-0.0331388
-0.0333637
-0.033623
-0.0339266
-0.0342826
-0.0347061
-0.0352128
-0.0358356
-0.036632
-0.0376923
-0.0391321
-0.0410673
-0.043574
-0.0466468
-0.0501845
-0.053864
-0.0578981
-0.032913
-0.0330883
-0.033301
-0.0335544
-0.0338592
-0.034222
-0.0346578
-0.0351824
-0.0358281
-0.0366498
-0.0377329
-0.039186
-0.0411153
-0.0435809
-0.0465483
-0.0498635
-0.0531614
-0.0564491
-0.0328667
-0.0330297
-0.0332306
-0.033477
-0.0337813
-0.034149
-0.0345946
-0.0351331
-0.035795
-0.0366314
-0.0377226
-0.039171
-0.0410757
-0.0434843
-0.0463402
-0.0494499
-0.0524452
-0.0552103
-0.0328126
-0.0329626
-0.0331513
-0.0333896
-0.0336913
-0.0340616
-0.0345137
-0.0350614
-0.0357322
-0.0365725
-0.0376565
-0.0390809
-0.0409387
-0.0432685
-0.0460002
-0.0489102
-0.0516488
-0.0540218
-0.0327521
-0.0328869
-0.0330624
-0.0332909
-0.0335878
-0.0339573
-0.0344117
-0.0349627
-0.0356337
-0.0364656
-0.0375255
-0.0389036
-0.0406872
-0.042909
-0.0454871
-0.04819
-0.0506888
-0.0527429
-0.0326855
-0.0328019
-0.0329626
-0.0331794
-0.0334684
-0.033833
-0.0342839
-0.0348304
-0.0354911
-0.0363001
-0.0373162
-0.0386214
-0.0402969
-0.0423705
-0.0447562
-0.0472262
-0.0494757
-0.051248
-0.0326115
-0.0327064
-0.03285
-0.0330528
-0.0333299
-0.033684
-0.0341238
-0.0346558
-0.035293
-0.0360619
-0.0370112
-0.0382131
-0.0397407
-0.0416183
-0.0437626
-0.045961
-0.0479378
-0.0494447
-0.0325276
-0.032598
-0.0327223
-0.0329082
-0.0331688
-0.0335055
-0.0339247
-0.0344296
-0.0350277
-0.0357367
-0.036594
-0.03766
-0.0389984
-0.0406308
-0.0424827
-0.0443672
-0.0460438
-0.04729
-0.0324378
-0.0324841
-0.0325889
-0.0327562
-0.0329967
-0.0333101
-0.0337002
-0.0341672
-0.0347133
-0.0353479
-0.0360982
-0.0370122
-0.0381435
-0.0395113
-0.0410531
-0.0426125
-0.0439886
-0.0449913
-0.0323335
-0.0323564
-0.0324398
-0.0325853
-0.0327999
-0.0330823
-0.0334331
-0.0338492
-0.0343278
-0.0348714
-0.0354972
-0.0362403
-0.0371436
-0.0382243
-0.0394351
-0.0406562
-0.0417269
-0.042493
-0.032189
-0.0321882
-0.0322458
-0.0323628
-0.0325407
-0.0327774
-0.0330701
-0.0334119
-0.0337952
-0.034216
-0.0346806
-0.0352104
-0.0358367
-0.0365747
-0.0373971
-0.038225
-0.0389449
-0.0394444
-0.0319849
-0.0319631
-0.0319917
-0.0320719
-0.0322005
-0.0323738
-0.032586
-0.032827
-0.0330847
-0.033349
-0.0336174
-0.0339
-0.0342142
-0.0345742
-0.0349732
-0.0353706
-0.0357026
-0.035903
-0.0316965
-0.0316594
-0.0316576
-0.0316932
-0.0317595
-0.0318517
-0.0319617
-0.0320773
-0.032184
-0.0322679
-0.0323205
-0.0323416
-0.0323402
-0.0323286
-0.032311
-0.0322798
-0.0322199
-0.0321062
-0.0312996
-0.0312543
-0.0312223
-0.0312067
-0.0312003
-0.0311981
-0.0311916
-0.0311683
-0.0311136
-0.0310132
-0.0308561
-0.030637
-0.0303592
-0.0300312
-0.0296642
-0.0292714
-0.0288695
-0.0284658
-0.0307864
-0.0307357
-0.0306726
-0.0306013
-0.0305168
-0.0304155
-0.0302904
-0.0301311
-0.0299255
-0.0296618
-0.0293305
-0.0289269
-0.0284516
-0.0279114
-0.027319
-0.0266941
-0.0260636
-0.025452
-0.0301835
-0.0301199
-0.0300243
-0.0298969
-0.0297365
-0.0295424
-0.0293107
-0.0290353
-0.0287089
-0.0283248
-0.0278782
-0.0273674
-0.0267945
-0.0261657
-0.0254917
-0.0247888
-0.0240796
-0.023388
-0.0297135
-0.0296349
-0.0295119
-0.0293447
-0.0291324
-0.0288758
-0.0285736
-0.0282231
-0.0278213
-0.0273664
-0.0268583
-0.0262998
-0.0256963
-0.0250563
-0.0243912
-0.0237151
-0.0230458
-0.0224015
-0.029399
-0.0293133
-0.0291792
-0.0289948
-0.0287587
-0.0284723
-0.0281356
-0.0277482
-0.0273098
-0.0268214
-0.0262859
-0.0257081
-0.025095
-0.024456
-0.0238023
-0.023147
-0.0225053
-0.0218913
-0.0291589
-0.0290802
-0.0289485
-0.028759
-0.0285121
-0.0282098
-0.0278533
-0.0274438
-0.0269835
-0.0264757
-0.0259252
-0.0253385
-0.0247234
-0.0240894
-0.0234475
-0.0228094
-0.0221883
-0.0215957
-0.0289734
-0.0289152
-0.0287953
-0.0286058
-0.0283522
-0.0280376
-0.027665
-0.0272374
-0.0267587
-0.0262341
-0.0256699
-0.0250737
-0.024454
-0.0238206
-0.0231843
-0.0225561
-0.0219479
-0.0213692
-0.028839
-0.0288088
-0.0287028
-0.0285136
-0.028253
-0.0279258
-0.0275368
-0.0270911
-0.026594
-0.0260522
-0.0254729
-0.0248646
-0.0242365
-0.0235987
-0.0229618
-0.0223367
-0.0217347
-0.0211643
-0.0287572
-0.0287538
-0.0286597
-0.0284692
-0.0282003
-0.0278598
-0.0274543
-0.0269906
-0.0264754
-0.0259162
-0.0253212
-0.0246992
-0.0240601
-0.0234141
-0.022772
-0.0221448
-0.0215435
-0.0209765
-0.0287233
-0.0287415
-0.0286555
-0.0284625
-0.0281849
-0.0278312
-0.0274101
-0.0269296
-0.0263974
-0.0258216
-0.0252109
-0.0245746
-0.0239229
-0.0232663
-0.0226157
-0.0219821
-0.0213766
-0.0208082
-0.028726
-0.0287605
-0.0286802
-0.0284845
-0.0281983
-0.0278322
-0.0273968
-0.0269012
-0.0263535
-0.0257622
-0.0251365
-0.0244858
-0.0238206
-0.0231516
-0.0224899
-0.0218465
-0.0212326
-0.020658
-0.028751
-0.0288006
-0.0287258
-0.0285274
-0.0282329
-0.0278553
-0.027407
-0.0268976
-0.0263358
-0.0257303
-0.0250901
-0.024425
-0.0237455
-0.0230625
-0.0223872
-0.0217309
-0.0211048
-0.0205194
-0.0287845
-0.0288521
-0.0287846
-0.0285838
-0.0282813
-0.0278931
-0.0274331
-0.0269115
-0.0263369
-0.025718
-0.025064
-0.0243845
-0.0236901
-0.0229918
-0.0223009
-0.0216289
-0.0209872
-0.0203865
-0.0288118
-0.0288978
-0.0288371
-0.0286344
-0.0283257
-0.0279295
-0.0274609
-0.0269301
-0.0263459
-0.0257169
-0.025052
-0.024361
-0.0236543
-0.022943
-0.0222386
-0.0215526
-0.0208964
-0.0202808
-0.0776681
-0.077569
-0.0774492
-0.0773609
-0.0773347
-0.0773889
-0.077533
-0.0777688
-0.0780917
-0.0784916
-0.0789558
-0.0794704
-0.0800225
-0.0806019
-0.081202
-0.0818204
-0.0824596
-0.0831259
-0.0838292
-0.084582
-0.0853981
-0.0862915
-0.0872756
-0.0883619
-0.0895597
-0.090876
-0.0923149
-0.0938776
-0.0955621
-0.0973623
-0.0992674
-0.101261
-0.103321
-0.105419
-0.107519
-0.109579
-0.11155
-0.113377
-0.115002
-0.116365
-0.117403
-0.118056
-0.118268
-0.117988
-0.117173
-0.115788
-0.113812
-0.111232
-0.108051
-0.104281
-0.0999498
-0.0950946
-0.0897642
-0.0840158
-0.0779145
-0.0715348
-0.0649553
-0.0582581
-0.0515275
-0.044848
-0.0383019
-0.0319684
-0.0259218
-0.02023
-0.0149533
-0.0101434
-0.00584242
-0.00208205
0.00111671
0.00374382
0.00580006
0.00729659
0.00825427
0.00870263
0.00867872
0.00822562
0.00739099
0.00622547
0.00478112
0.00310996
0.00126258
-0.000713143
-0.00277243
-0.00487537
-0.00698677
-0.00907616
-0.0111181
-0.0130922
-0.0149831
-0.0167794
-0.0184737
-0.020062
-0.0215427
-0.0229166
-0.0241859
-0.0253542
-0.0264256
-0.0274045
-0.0282955
-0.0291028
-0.0298308
-0.0304835
-0.0310644
-0.0315768
-0.032024
-0.0324087
-0.0327336
-0.0330014
-0.0332146
-0.0333757
-0.0334876
-0.0335528
-0.0335741
-0.0335545
-0.0334968
-0.0334039
-0.0332789
-0.0331248
-0.0329443
-0.0327405
-0.0325161
-0.0322737
-0.0320158
-0.0317448
-0.0314629
-0.031172
-0.030874
-0.0305704
-0.0302628
-0.0299524
-0.02964
-0.0293269
-0.0290139
-0.0287017
-0.0283907
-0.0280814
-0.0277742
-0.0274691
-0.0271665
-0.0268663
-0.0265687
-0.0262736
-0.025981
-0.0256908
-0.0254029
-0.0251171
-0.0248333
-0.0245513
-0.0242708
-0.0239918
-0.0237138
-0.0234367
-0.0231603
-0.0228843
-0.0226085
-0.0223327
-0.0220567
-0.0217803
-0.0215032
-0.0212254
-0.0209466
-0.0206666
-0.0203852
-0.0201022
-0.0198175
-0.0195308
-0.0192419
-0.0189503
-0.0186557
-0.0183576
-0.0180552
-0.0177472
-0.0174315
-0.0171045
-0.0167593
-0.0163845
-0.0159684
-0.0155116
-0.0149748
-0.014262
-0.0779982
-0.0778472
-0.0777013
-0.0776146
-0.0775996
-0.0776628
-0.0778086
-0.0780364
-0.0783399
-0.0787091
-0.0791316
-0.0795947
-0.0800871
-0.0806003
-0.0811297
-0.0816746
-0.0822382
-0.0828275
-0.0834523
-0.0841246
-0.0848574
-0.0856637
-0.086556
-0.0875451
-0.08864
-0.0898483
-0.0911755
-0.0926247
-0.0941964
-0.095888
-0.0976929
-0.0995994
-0.10159
-0.10364
-0.105719
-0.107786
-0.109798
-0.111699
-0.113433
-0.114935
-0.116141
-0.116985
-0.117406
-0.117345
-0.116753
-0.11559
-0.113828
-0.11145
-0.108454
-0.104852
-0.10067
-0.0959464
-0.0907278
-0.0850662
-0.0790296
-0.0726963
-0.0661486
-0.0594713
-0.0527508
-0.0460726
-0.0395207
-0.0331753
-0.0271114
-0.0213978
-0.0160955
-0.0112567
-0.00692382
-0.00312911
0.000106177
0.00277174
0.00486816
0.00640647
0.00740743
0.00790055
0.00792282
0.0075173
0.00673159
0.00561624
0.00422314
0.00260407
0.000809279
-0.00111366
-0.00312063
-0.00517217
-0.00723345
-0.00927446
-0.0112703
-0.013201
-0.0150516
-0.0168113
-0.0184731
-0.0200327
-0.0214888
-0.0228419
-0.0240941
-0.0252489
-0.02631
-0.0272814
-0.0281672
-0.0289717
-0.0296989
-0.0303522
-0.0309353
-0.0314511
-0.0319025
-0.0322922
-0.0326226
-0.0328964
-0.0331158
-0.0332834
-0.0334017
-0.0334733
-0.033501
-0.0334875
-0.0334357
-0.0333486
-0.0332291
-0.0330801
-0.0329045
-0.0327052
-0.032485
-0.0322465
-0.0319922
-0.0317245
-0.0314456
-0.0311574
-0.0308618
-0.0305604
-0.0302546
-0.0299457
-0.0296351
-0.0293235
-0.0290117
-0.0287004
-0.0283902
-0.0280816
-0.0277749
-0.0274703
-0.027168
-0.0268681
-0.0265707
-0.0262757
-0.0259832
-0.025693
-0.0254051
-0.0251193
-0.0248355
-0.0245534
-0.0242729
-0.0239937
-0.0237156
-0.0234385
-0.0231619
-0.0228859
-0.02261
-0.0223341
-0.022058
-0.0217815
-0.0215044
-0.0212265
-0.0209476
-0.0206675
-0.0203861
-0.0201031
-0.0198184
-0.0195317
-0.0192427
-0.0189511
-0.0186566
-0.0183585
-0.018056
-0.017748
-0.0174323
-0.0171053
-0.0167606
-0.0163878
-0.0159785
-0.0155372
-0.0150203
-0.0143557
-0.078135
-0.0779379
-0.0777586
-0.0776653
-0.0776613
-0.077744
-0.0779116
-0.0781584
-0.078474
-0.0788444
-0.0792544
-0.0796898
-0.0801387
-0.0805936
-0.0810512
-0.0815129
-0.0819847
-0.0824762
-0.083
-0.0835704
-0.0842019
-0.0849084
-0.0857035
-0.0865996
-0.0876079
-0.0887389
-0.0900021
-0.0914063
-0.092958
-0.0946612
-0.0965155
-0.0985147
-0.100645
-0.102884
-0.105198
-0.107546
-0.109873
-0.112118
-0.114209
-0.116073
-0.117631
-0.118808
-0.119529
-0.119732
-0.119359
-0.118369
-0.116731
-0.114433
-0.111474
-0.107874
-0.103662
-0.0988715
-0.0935514
-0.0877741
-0.0816187
-0.0751638
-0.0684935
-0.0616942
-0.0548536
-0.0480586
-0.0413934
-0.0349388
-0.0287699
-0.0229556
-0.017557
-0.0126262
-0.00820589
-0.00432835
-0.00101497
0.00172388
0.00388878
0.00549086
0.00655112
0.00709939
0.00717313
0.00681594
0.00607604
0.00500456
0.00365399
0.0020766
0.000323079
-0.00155868
-0.00352447
-0.00553465
-0.00755487
-0.00955545
-0.0115113
-0.0134031
-0.015216
-0.01694
-0.0185681
-0.0200968
-0.0215249
-0.022853
-0.0240835
-0.0252196
-0.0262653
-0.0272242
-0.0281004
-0.0288977
-0.0296199
-0.0302704
-0.0308522
-0.0313682
-0.031821
-0.032213
-0.0325464
-0.0328237
-0.033047
-0.0332187
-0.0333412
-0.0334171
-0.033449
-0.0334396
-0.0333919
-0.0333086
-0.0331927
-0.0330471
-0.0328748
-0.0326786
-0.0324612
-0.0322254
-0.0319735
-0.0317081
-0.0314313
-0.031145
-0.0308512
-0.0305513
-0.030247
-0.0299395
-0.0296299
-0.0293193
-0.0290084
-0.0286979
-0.0283884
-0.0280803
-0.0277741
-0.0274699
-0.027168
-0.0268683
-0.0265711
-0.0262764
-0.025984
-0.0256939
-0.0254061
-0.0251203
-0.0248365
-0.0245545
-0.024274
-0.0239948
-0.0237167
-0.0234395
-0.0231629
-0.0228868
-0.0226109
-0.022335
-0.0220588
-0.0217823
-0.0215051
-0.0212272
-0.0209483
-0.0206682
-0.0203868
-0.0201038
-0.0198191
-0.0195324
-0.0192435
-0.018952
-0.0186576
-0.0183596
-0.0180574
-0.0177496
-0.0174343
-0.0171082
-0.0167658
-0.0163978
-0.0159985
-0.015575
-0.0150877
-0.0144836
-0.0779342
-0.0777203
-0.0775342
-0.0774545
-0.0774814
-0.077607
-0.0778238
-0.07812
-0.0784788
-0.0788805
-0.0793055
-0.0797364
-0.0801602
-0.0805696
-0.0809633
-0.0813461
-0.0817285
-0.0821252
-0.0825535
-0.0830324
-0.0835819
-0.0842215
-0.0849702
-0.0858471
-0.0868709
-0.0880606
-0.089435
-0.0910116
-0.0928048
-0.0948239
-0.0970704
-0.0995351
-0.102197
-0.10502
-0.107954
-0.110937
-0.113893
-0.116738
-0.11938
-0.121727
-0.123688
-0.125178
-0.126121
-0.126451
-0.126117
-0.125085
-0.123333
-0.120862
-0.117683
-0.11382
-0.109307
-0.104195
-0.0985577
-0.0924701
-0.0860093
-0.0792583
-0.0723032
-0.0652323
-0.0581337
-0.0510944
-0.0441983
-0.0375255
-0.0311507
-0.0251419
-0.0195598
-0.0144564
-0.00987422
-0.00584569
-0.0023924
0.000475036
0.00275703
0.00446469
0.00561917
0.00625068
0.00639732
0.00610352
0.00541852
0.00439462
0.00308553
0.00154478
-0.00017577
-0.00202712
-0.00396413
-0.00594648
-0.00793924
-0.00991215
-0.0118401
-0.0137035
-0.0154882
-0.017184
-0.0187845
-0.0202862
-0.0216885
-0.0229925
-0.0242006
-0.0253163
-0.026344
-0.0272871
-0.0281497
-0.0289357
-0.0296485
-0.0302914
-0.0308672
-0.0313785
-0.0318277
-0.032217
-0.0325485
-0.0328243
-0.0330466
-0.0332175
-0.0333394
-0.0334148
-0.0334462
-0.0334364
-0.0333883
-0.0333046
-0.0331883
-0.0330425
-0.0328699
-0.0326734
-0.0324559
-0.03222
-0.0319681
-0.0317027
-0.0314259
-0.0311398
-0.030846
-0.0305464
-0.0302423
-0.029935
-0.0296257
-0.0293153
-0.0290046
-0.0286944
-0.0283852
-0.0280774
-0.0277714
-0.0274674
-0.0271657
-0.0268663
-0.0265693
-0.0262747
-0.0259825
-0.0256926
-0.0254049
-0.0251193
-0.0248356
-0.0245537
-0.0242733
-0.0239942
-0.0237162
-0.023439
-0.0231626
-0.0228865
-0.0226106
-0.0223348
-0.0220587
-0.0217822
-0.0215051
-0.0212272
-0.0209483
-0.0206683
-0.0203869
-0.020104
-0.0198194
-0.0195328
-0.0192441
-0.0189528
-0.0186586
-0.018361
-0.0180592
-0.0177521
-0.017438
-0.017114
-0.0167756
-0.0164156
-0.0160301
-0.0156231
-0.0151647
-0.014639
-0.0773426
-0.077144
-0.0769878
-0.0769542
-0.0770415
-0.0772377
-0.0775294
-0.0778983
-0.0783213
-0.0787731
-0.0792301
-0.0796726
-0.0800879
-0.08047
-0.0808215
-0.0811518
-0.0814773
-0.0818197
-0.0822042
-0.0826587
-0.0832126
-0.0838962
-0.0847402
-0.0857763
-0.0870359
-0.0885499
-0.0903464
-0.0924477
-0.0948678
-0.0976083
-0.100656
-0.10398
-0.107533
-0.111248
-0.115044
-0.118829
-0.122499
-0.12595
-0.129076
-0.131777
-0.133961
-0.135546
-0.136466
-0.136667
-0.136114
-0.134787
-0.132681
-0.129809
-0.126194
-0.121868
-0.116888
-0.111323
-0.105244
-0.0987263
-0.0918515
-0.0847053
-0.0773755
-0.0699506
-0.0625182
-0.0551643
-0.0479713
-0.0410177
-0.0343766
-0.0281151
-0.0222928
-0.0169613
-0.012163
-0.00793048
-0.00428587
-0.00124032
0.001206
0.00306377
0.00435389
0.00510665
0.00536046
0.00516042
0.00455669
0.00360273
0.00235357
0.000864152
-0.000812191
-0.00262511
-0.00452826
-0.00648019
-0.00844438
-0.0103897
-0.0122908
-0.0141279
-0.0158864
-0.0175561
-0.0191305
-0.0206064
-0.0219833
-0.0232627
-0.0244473
-0.0255408
-0.0265474
-0.0274713
-0.0283164
-0.0290865
-0.0297852
-0.0304155
-0.03098
-0.0314814
-0.0319216
-0.0323027
-0.0326268
-0.0328957
-0.0331115
-0.0332763
-0.0333925
-0.0334623
-0.0334885
-0.0334738
-0.0334208
-0.0333327
-0.0332123
-0.0330625
-0.0328864
-0.0326867
-0.0324662
-0.0322277
-0.0319735
-0.0317061
-0.0314276
-0.03114
-0.0308451
-0.0305445
-0.0302395
-0.0299316
-0.0296218
-0.029311
-0.0290001
-0.0286898
-0.0283805
-0.0280727
-0.0277668
-0.0274629
-0.0271613
-0.0268621
-0.0265652
-0.0262708
-0.0259788
-0.0256892
-0.0254017
-0.0251164
-0.0248329
-0.0245512
-0.024271
-0.0239921
-0.0237143
-0.0234374
-0.0231611
-0.0228851
-0.0226094
-0.0223337
-0.0220578
-0.0217814
-0.0215044
-0.0212266
-0.0209478
-0.0206679
-0.0203867
-0.0201039
-0.0198195
-0.0195331
-0.0192446
-0.0189536
-0.0186598
-0.0183627
-0.0180616
-0.0177556
-0.0174432
-0.0171224
-0.0167896
-0.0164401
-0.0160711
-0.0156802
-0.0152491
-0.0148054
-0.0762942
-0.0761404
-0.0760468
-0.0760875
-0.0762588
-0.0765449
-0.0769274
-0.077382
-0.0778804
-0.0783938
-0.0788969
-0.0793709
-0.0798048
-0.0801964
-0.0805533
-0.0808924
-0.0812384
-0.081623
-0.0820832
-0.0826599
-0.0833969
-0.0843401
-0.0855361
-0.0870306
-0.0888662
-0.0910789
-0.0936946
-0.0967248
-0.100163
-0.103983
-0.108137
-0.112556
-0.117154
-0.121829
-0.12647
-0.130961
-0.135187
-0.139035
-0.142402
-0.145195
-0.147335
-0.148755
-0.149405
-0.14925
-0.148271
-0.146464
-0.143839
-0.140419
-0.136239
-0.131352
-0.125824
-0.119721
-0.11312
-0.106101
-0.0987489
-0.0911516
-0.0833972
-0.0755737
-0.0677673
-0.060062
-0.0525379
-0.0452712
-0.0383328
-0.0317878
-0.0256946
-0.020104
-0.0150582
-0.0105901
-0.00672228
-0.00346679
-0.00082461
0.00121416
0.0026699
0.00357265
0.00396095
0.00388036
0.00338183
0.00251986
0.00135079
-6.91337e-05
-0.00168533
-0.00344582
-0.00530263
-0.00721276
-0.00913863
-0.0110485
-0.0129163
-0.0147216
-0.0164492
-0.0180886
-0.0196331
-0.0210794
-0.0224271
-0.0236778
-0.0248345
-0.025901
-0.0268817
-0.0277809
-0.0286027
-0.0293511
-0.0300293
-0.0306404
-0.0311872
-0.0316719
-0.0320966
-0.0324632
-0.0327735
-0.0330294
-0.0332328
-0.0333859
-0.0334909
-0.0335502
-0.0335663
-0.0335421
-0.0334803
-0.0333839
-0.0332559
-0.0330992
-0.0329167
-0.0327112
-0.0324857
-0.0322426
-0.0319845
-0.0317136
-0.0314322
-0.0311421
-0.030845
-0.0305426
-0.0302363
-0.0299272
-0.0296165
-0.0293051
-0.0289937
-0.0286831
-0.0283736
-0.0280658
-0.0277598
-0.0274561
-0.0271547
-0.0268556
-0.0265591
-0.026265
-0.0259733
-0.025684
-0.0253969
-0.0251118
-0.0248287
-0.0245473
-0.0242675
-0.0239889
-0.0237114
-0.0234347
-0.0231587
-0.022883
-0.0226075
-0.022332
-0.0220562
-0.02178
-0.0215032
-0.0212256
-0.020947
-0.0206673
-0.0203862
-0.0201037
-0.0198194
-0.0195333
-0.0192451
-0.0189545
-0.0186612
-0.0183648
-0.0180646
-0.01776
-0.0174499
-0.0171328
-0.0168065
-0.0164682
-0.0161161
-0.0157406
-0.0153331
-0.0149577
-0.0747238
-0.0746424
-0.0746389
-0.0747736
-0.0750414
-0.0754248
-0.0759016
-0.0764442
-0.0770224
-0.077607
-0.0781746
-0.0787093
-0.0792046
-0.0796655
-0.0801082
-0.0805598
-0.0810569
-0.0816445
-0.0823748
-0.0833051
-0.0844958
-0.0860082
-0.0879007
-0.0902248
-0.0930207
-0.096312
-0.100102
-0.10437
-0.109071
-0.114135
-0.119472
-0.124976
-0.130527
-0.136001
-0.141274
-0.146224
-0.150739
-0.154717
-0.158068
-0.160716
-0.162597
-0.163665
-0.163884
-0.163235
-0.161713
-0.159326
-0.156094
-0.152054
-0.147256
-0.141757
-0.135627
-0.128939
-0.121774
-0.114218
-0.106358
-0.0982838
-0.0900836
-0.0818442
-0.0736499
-0.065582
-0.0577175
-0.0501293
-0.0428856
-0.0360489
-0.0296758
-0.0238159
-0.0185109
-0.013794
-0.00968845
-0.00620714
-0.00335216
-0.00111461
0.000525097
0.00159652
0.00213813
0.00219573
0.00182099
0.00106911
-2.71368e-06
-0.00133647
-0.00287579
-0.00456733
-0.00636206
-0.00821592
-0.0100902
-0.011952
-0.0137748
-0.0155372
-0.0172235
-0.0188228
-0.020328
-0.0217357
-0.0230455
-0.0242589
-0.0253791
-0.02641
-0.0273561
-0.0282218
-0.0290116
-0.0297293
-0.0303784
-0.0309619
-0.0314826
-0.0319424
-0.0323435
-0.0326878
-0.0329771
-0.0332131
-0.0333977
-0.0335331
-0.0336214
-0.033665
-0.0336666
-0.0336289
-0.0335546
-0.0334467
-0.0333083
-0.0331421
-0.0329512
-0.0327383
-0.0325061
-0.0322573
-0.0319942
-0.0317192
-0.0314341
-0.031141
-0.0308416
-0.0305372
-0.0302293
-0.0299191
-0.0296075
-0.0292955
-0.0289837
-0.0286729
-0.0283634
-0.0280556
-0.0277499
-0.0274464
-0.0271454
-0.0268467
-0.0265506
-0.026257
-0.0259658
-0.025677
-0.0253904
-0.0251058
-0.0248232
-0.0245423
-0.0242629
-0.0239847
-0.0237076
-0.0234313
-0.0231556
-0.0228803
-0.0226051
-0.0223298
-0.0220543
-0.0217784
-0.0215018
-0.0212244
-0.020946
-0.0206665
-0.0203856
-0.0201033
-0.0198193
-0.0195335
-0.0192456
-0.0189555
-0.0186628
-0.0183671
-0.0180681
-0.0177651
-0.0174575
-0.0171444
-0.0168245
-0.0164964
-0.0161586
-0.0157969
-0.015407
-0.0150772
-0.0725934
-0.0726085
-0.0727156
-0.0729535
-0.0733186
-0.073795
-0.0743604
-0.0749876
-0.0756481
-0.0763167
-0.0769749
-0.0776135
-0.078235
-0.0788549
-0.0795013
-0.0802146
-0.0810463
-0.0820574
-0.0833161
-0.0848948
-0.0868657
-0.0892961
-0.0922422
-0.0957433
-0.0998167
-0.104453
-0.109615
-0.115237
-0.121229
-0.127482
-0.133873
-0.140269
-0.14654
-0.152557
-0.158198
-0.163354
-0.167927
-0.171829
-0.174989
-0.177345
-0.17885
-0.179469
-0.17918
-0.177974
-0.175856
-0.172843
-0.16897
-0.164283
-0.158835
-0.152694
-0.145933
-0.138634
-0.130885
-0.122775
-0.114395
-0.105836
-0.0971863
-0.0885314
-0.0799534
-0.0715298
-0.0633342
-0.0554355
-0.0478979
-0.0407807
-0.0341381
-0.0280178
-0.0224608
-0.0175
-0.0131593
-0.00945233
-0.0063824
-0.00394163
-0.00211139
-0.000862755
-0.000157363
5.00966e-05
-0.000188611
-0.000816734
-0.00177546
-0.00300614
-0.00445178
-0.00605794
-0.00777403
-0.00955479
-0.0113607
-0.0131581
-0.0149196
-0.0166234
-0.0182531
-0.0197974
-0.0212489
-0.022604
-0.0238622
-0.025025
-0.0260957
-0.0270782
-0.0279772
-0.0287973
-0.029543
-0.0302184
-0.030827
-0.031372
-0.0318561
-0.0322812
-0.0326496
-0.0329631
-0.0332233
-0.033432
-0.0335911
-0.0337028
-0.0337691
-0.0337924
-0.0337752
-0.0337204
-0.0336306
-0.0335088
-0.0333579
-0.0331806
-0.03298
-0.0327586
-0.0325192
-0.0322642
-0.0319959
-0.0317166
-0.031428
-0.0311321
-0.0308304
-0.0305244
-0.0302153
-0.0299043
-0.0295923
-0.0292801
-0.0289684
-0.0286577
-0.0283486
-0.0280413
-0.0277362
-0.0274334
-0.027133
-0.0268351
-0.0265397
-0.0262468
-0.0259563
-0.0256682
-0.0253823
-0.0250985
-0.0248165
-0.0245362
-0.0242573
-0.0239797
-0.0237031
-0.0234273
-0.023152
-0.0228771
-0.0226023
-0.0223274
-0.0220522
-0.0217765
-0.0215002
-0.021223
-0.0209449
-0.0206656
-0.0203849
-0.0201028
-0.0198191
-0.0195336
-0.0192461
-0.0189564
-0.0186643
-0.0183695
-0.0180716
-0.0177702
-0.0174651
-0.0171557
-0.0168413
-0.0165212
-0.0161936
-0.0158429
-0.0154642
-0.0151574
-0.0699229
-0.0700528
-0.0702818
-0.0706215
-0.0710742
-0.0716311
-0.0722744
-0.0729821
-0.0737322
-0.0745067
-0.0752959
-0.0761018
-0.0769396
-0.0778383
-0.078841
-0.0800035
-0.0813932
-0.0830856
-0.0851606
-0.0876968
-0.0907654
-0.0944226
-0.098703
-0.103614
-0.109133
-0.115204
-0.121746
-0.12865
-0.135793
-0.14304
-0.150252
-0.157294
-0.164038
-0.170365
-0.17617
-0.181356
-0.185842
-0.189556
-0.192439
-0.19444
-0.195523
-0.195662
-0.194841
-0.193061
-0.190332
-0.186685
-0.182162
-0.176812
-0.170699
-0.163898
-0.156491
-0.148569
-0.140225
-0.131553
-0.12265
-0.113607
-0.104513
-0.0954535
-0.0865065
-0.0777462
-0.0692414
-0.0610562
-0.0532503
-0.0458789
-0.0389927
-0.032637
-0.0268513
-0.0216677
-0.0171102
-0.0131929
-0.00991995
-0.00728414
-0.00526795
-0.00384379
-0.00297399
-0.00261186
-0.00270476
-0.00319688
-0.00402966
-0.00514321
-0.00647895
-0.00798149
-0.00959963
-0.0112874
-0.0130046
-0.014717
-0.0163966
-0.0180213
-0.0195742
-0.0210439
-0.0224224
-0.0237062
-0.0248947
-0.0259895
-0.0269937
-0.0279115
-0.0287477
-0.029507
-0.030194
-0.030813
-0.0313678
-0.0318616
-0.0322971
-0.0326765
-0.033002
-0.0332753
-0.0334981
-0.033672
-0.033799
-0.0338811
-0.0339204
-0.0339191
-0.0338797
-0.0338049
-0.0336973
-0.0335598
-0.033395
-0.0332058
-0.0329949
-0.0327648
-0.0325182
-0.0322572
-0.0319841
-0.0317009
-0.0314094
-0.0311113
-0.0308082
-0.0305013
-0.0301918
-0.0298807
-0.0295689
-0.0292573
-0.0289463
-0.0286365
-0.0283283
-0.0280221
-0.0277181
-0.0274164
-0.0271171
-0.0268204
-0.0265261
-0.0262343
-0.0259449
-0.0256577
-0.0253728
-0.0250898
-0.0248087
-0.0245292
-0.0242511
-0.0239741
-0.0236981
-0.0234229
-0.0231481
-0.0228737
-0.0225993
-0.0223248
-0.0220499
-0.0217746
-0.0214985
-0.0212216
-0.0209437
-0.0206646
-0.0203842
-0.0201024
-0.0198189
-0.0195337
-0.0192465
-0.0189572
-0.0186657
-0.0183716
-0.0180747
-0.0177749
-0.0174718
-0.0171653
-0.016855
-0.01654
-0.0162185
-0.0158757
-0.0155026
-0.0152009
-0.0668123
-0.0670659
-0.0674174
-0.0678488
-0.0683736
-0.0689964
-0.0697094
-0.0704999
-0.0713557
-0.0722705
-0.073248
-0.0743046
-0.0754707
-0.0767914
-0.0783255
-0.0801438
-0.0823259
-0.0849552
-0.0881123
-0.0918679
-0.0962745
-0.101359
-0.107118
-0.113515
-0.12048
-0.127916
-0.135701
-0.143702
-0.151777
-0.159784
-0.167589
-0.175064
-0.182096
-0.18858
-0.194427
-0.199555
-0.203894
-0.207382
-0.209967
-0.211608
-0.212271
-0.211937
-0.210595
-0.208249
-0.204921
-0.200649
-0.195475
-0.18946
-0.182675
-0.175206
-0.167145
-0.15859
-0.149644
-0.140408
-0.130982
-0.12146
-0.111934
-0.102485
-0.0931894
-0.0841174
-0.0753324
-0.0668931
-0.0588536
-0.0512644
-0.0441719
-0.037618
-0.0316397
-0.0262677
-0.0215248
-0.0174248
-0.0139729
-0.011163
-0.00897787
-0.00738826
-0.0063573
-0.0058406
-0.0057863
-0.00613693
-0.00683286
-0.00781405
-0.00902176
-0.0104003
-0.0118982
-0.0134691
-0.0150726
-0.0166744
-0.0182463
-0.019766
-0.021217
-0.0225869
-0.0238684
-0.0250577
-0.0261543
-0.0271597
-0.0280772
-0.028911
-0.029666
-0.030347
-0.0309589
-0.0315061
-0.0319925
-0.0324215
-0.0327958
-0.0331179
-0.0333899
-0.0336135
-0.0337904
-0.0339222
-0.0340108
-0.0340579
-0.0340656
-0.034036
-0.0339714
-0.0338742
-0.0337471
-0.0335927
-0.0334134
-0.0332119
-0.0329906
-0.0327521
-0.0324986
-0.0322323
-0.0319551
-0.031669
-0.0313755
-0.0310763
-0.0307727
-0.0304659
-0.0301569
-0.0298468
-0.0295362
-0.029226
-0.0289165
-0.0286084
-0.028302
-0.0279975
-0.0276952
-0.0273952
-0.0270976
-0.0268024
-0.0265096
-0.0262193
-0.0259313
-0.0256455
-0.0253617
-0.0250799
-0.0247998
-0.0245213
-0.0242441
-0.0239679
-0.0236927
-0.0234181
-0.023144
-0.02287
-0.0225961
-0.0223221
-0.0220476
-0.0217726
-0.0214969
-0.0212202
-0.0209426
-0.0206637
-0.0203835
-0.0201019
-0.0198186
-0.0195336
-0.0192467
-0.0189578
-0.0186666
-0.0183731
-0.0180771
-0.0177783
-0.0174767
-0.0171722
-0.0168643
-0.0165519
-0.0162326
-0.0158945
-0.0155231
-0.0152157
-0.0634481
-0.0638232
-0.0642881
-0.0647958
-0.0653773
-0.0660552
-0.066836
-0.06772
-0.068709
-0.0698124
-0.0710497
-0.0724539
-0.0740719
-0.0759648
-0.0782052
-0.080874
-0.0840552
-0.0878284
-0.0922611
-0.0973998
-0.103263
-0.109837
-0.117072
-0.124888
-0.133173
-0.141799
-0.150624
-0.159503
-0.168293
-0.176861
-0.185084
-0.192851
-0.200061
-0.206627
-0.212468
-0.217514
-0.221702
-0.224976
-0.227288
-0.228597
-0.228874
-0.228099
-0.226266
-0.223383
-0.219481
-0.214597
-0.208781
-0.202102
-0.194645
-0.186505
-0.177786
-0.168595
-0.159045
-0.149245
-0.1393
-0.12931
-0.119364
-0.109545
-0.099925
-0.0905703
-0.0815385
-0.0728823
-0.06465
-0.0568861
-0.049632
-0.0429253
-0.036799
-0.0312817
-0.0263951
-0.0221535
-0.0185584
-0.0156026
-0.0132713
-0.0115369
-0.0103623
-0.00970111
-0.00950101
-0.00970503
-0.0102538
-0.0110876
-0.0121478
-0.0133792
-0.0147305
-0.0161559
-0.0176153
-0.019075
-0.0205072
-0.0218901
-0.0232075
-0.0244474
-0.0256026
-0.0266697
-0.027648
-0.0285393
-0.0293467
-0.0300747
-0.030728
-0.0313117
-0.0318308
-0.0322898
-0.0326927
-0.0330429
-0.0333435
-0.0335969
-0.0338051
-0.0339699
-0.0340929
-0.0341757
-0.0342199
-0.0342271
-0.0341991
-0.0341379
-0.0340457
-0.0339244
-0.0337766
-0.0336044
-0.0334102
-0.0331963
-0.0329651
-0.0327186
-0.032459
-0.0321882
-0.0319079
-0.0316198
-0.0313255
-0.0310262
-0.0307232
-0.0304176
-0.0301102
-0.029802
-0.0294937
-0.0291858
-0.0288788
-0.0285732
-0.0282692
-0.0279672
-0.0276672
-0.0273695
-0.0270741
-0.026781
-0.0264903
-0.0262018
-0.0259155
-0.0256314
-0.0253491
-0.0250687
-0.0247899
-0.0245125
-0.0242363
-0.0239612
-0.0236868
-0.023413
-0.0231395
-0.0228662
-0.0225929
-0.0223193
-0.0220452
-0.0217706
-0.0214952
-0.0212188
-0.0209414
-0.0206628
-0.0203828
-0.0201013
-0.0198182
-0.0195334
-0.0192466
-0.0189579
-0.018667
-0.0183739
-0.0180783
-0.0177802
-0.0174793
-0.0171757
-0.0168686
-0.0165567
-0.016237
-0.0159008
-0.0155287
-0.0152112
-0.0600886
-0.0605724
-0.0611338
-0.0617016
-0.0623275
-0.063056
-0.0639107
-0.0649086
-0.0660688
-0.0674175
-0.0689917
-0.0708412
-0.0730288
-0.0756283
-0.0787208
-0.0823893
-0.0867112
-0.0917498
-0.097546
-0.104111
-0.111421
-0.119418
-0.12801
-0.13708
-0.146491
-0.156097
-0.165751
-0.175311
-0.184644
-0.19363
-0.202162
-0.210142
-0.217484
-0.224109
-0.229946
-0.234929
-0.238999
-0.242099
-0.244181
-0.245207
-0.245144
-0.243974
-0.24169
-0.238308
-0.23386
-0.228382
-0.221938
-0.214607
-0.206485
-0.197678
-0.188303
-0.178481
-0.168332
-0.157976
-0.147525
-0.137081
-0.126736
-0.116572
-0.106658
-0.0970547
-0.0878144
-0.0789834
-0.0706031
-0.0627118
-0.0553449
-0.0485355
-0.0423138
-0.0367044
-0.031724
-0.0273852
-0.023691
-0.0206344
-0.0181961
-0.0163471
-0.0150493
-0.0142564
-0.0139162
-0.013972
-0.014365
-0.015036
-0.0159276
-0.0169854
-0.0181594
-0.0194052
-0.0206841
-0.0219637
-0.0232177
-0.0244255
-0.0255714
-0.0266448
-0.0276391
-0.0285512
-0.0293806
-0.0301293
-0.0308004
-0.0313983
-0.0319279
-0.0323942
-0.0328021
-0.0331562
-0.0334604
-0.0337184
-0.033933
-0.0341067
-0.0342415
-0.034339
-0.0344009
-0.0344284
-0.0344229
-0.0343859
-0.0343188
-0.0342234
-0.0341013
-0.0339545
-0.0337849
-0.0335945
-0.0333853
-0.0331593
-0.0329185
-0.0326647
-0.0323997
-0.0321253
-0.0318429
-0.0315539
-0.0312597
-0.0309614
-0.0306601
-0.0303567
-0.030052
-0.0297468
-0.0294416
-0.0291369
-0.0288332
-0.0285309
-0.0282301
-0.0279313
-0.0276343
-0.0273395
-0.0270469
-0.0267564
-0.026468
-0.0261818
-0.0258977
-0.0256154
-0.025335
-0.0250562
-0.0247789
-0.0245029
-0.0242279
-0.0239538
-0.0236804
-0.0234075
-0.0231348
-0.0228622
-0.0225895
-0.0223164
-0.0220428
-0.0217686
-0.0214935
-0.0212174
-0.0209403
-0.0206618
-0.020382
-0.0201006
-0.0198176
-0.0195329
-0.0192463
-0.0189576
-0.0186668
-0.0183738
-0.0180783
-0.0177803
-0.0174796
-0.0171759
-0.0168684
-0.0165554
-0.0162336
-0.0158972
-0.0155228
-0.0151957
-0.0570282
-0.0575984
-0.0582337
-0.0588465
-0.0595097
-0.0602912
-0.0612341
-0.0623734
-0.0637458
-0.0653953
-0.0673757
-0.0697523
-0.0726