/*--------------------------------*- C++ -*----------------------------------*\
  =========                 |
  \\      /  F ield         | OpenFOAM: The Open Source CFD Toolbox
   \\    /   O peration     | Website:  https://openfoam.org
    \\  /    A nd           | Version:  8
     \\/     M anipulation  |
\*---------------------------------------------------------------------------*/
FoamFile
{
    version     2.0;
    format      ascii;
    class       surfaceScalarField;
    location    "0.32";
    object      phi;
}
// * * * * * * * * * * * * * * * * * * * * * * * * * * * * * * * * * * * * * //

dimensions      [0 3 -1 0 0 0 0];

internalField   nonuniform List<scalar> 
24170
(
1.15033e-11
-1.15033e-11
-5.42466e-11
6.57499e-11
-1.54131e-10
9.98844e-11
-2.54287e-10
1.00156e-10
-3.39216e-10
8.49289e-11
-3.98936e-10
5.97204e-11
-4.2273e-10
2.37933e-11
-3.94034e-10
-2.86953e-11
-2.89754e-10
-1.0428e-10
-8.39285e-11
-2.05826e-10
2.42546e-10
-3.26474e-10
6.89086e-10
-4.4654e-10
1.22507e-09
-5.3598e-10
1.78908e-09
-5.64016e-10
2.2949e-09
-5.05819e-10
2.59744e-09
-3.02543e-10
2.40592e-09
1.91525e-10
4.28466e-09
-1.87874e-09
-7.83629e-12
-3.66704e-12
-2.30989e-10
2.88903e-10
-5.59164e-10
4.28059e-10
-8.92616e-10
4.33608e-10
-1.18097e-09
3.73284e-10
-1.39168e-09
2.70426e-10
-1.49013e-09
1.22248e-10
-1.42734e-09
-9.1482e-11
-1.13815e-09
-3.9347e-10
-5.53432e-10
-7.90548e-10
3.72666e-10
-1.25257e-09
1.62615e-09
-1.70002e-09
3.10692e-09
-2.01675e-09
4.61987e-09
-2.07697e-09
5.87744e-09
-1.76339e-09
6.43613e-09
-8.61234e-10
5.19513e-09
1.43253e-09
1.02143e-08
-7.34518e-10
-6.33588e-11
5.96918e-11
-4.78241e-10
7.03785e-10
-1.07244e-09
1.02226e-09
-1.68306e-09
1.04423e-09
-2.22003e-09
9.10257e-10
-2.62412e-09
6.7451e-10
-2.83381e-09
3.31946e-10
-2.76748e-09
-1.57813e-10
-2.3214e-09
-8.39555e-10
-1.39111e-09
-1.72084e-09
8.44292e-11
-2.72811e-09
2.06756e-09
-3.68315e-09
4.37675e-09
-4.32594e-09
6.67093e-09
-4.37115e-09
8.4413e-09
-3.53376e-09
8.9294e-09
-1.34933e-09
6.6991e-09
3.66283e-09
1.67721e-08
1.41253e-10
-1.46104e-10
2.05796e-10
-7.78936e-10
1.33662e-09
-1.66714e-09
1.91046e-09
-2.59138e-09
1.96846e-09
-3.41897e-09
1.73785e-09
-4.06008e-09
1.31562e-09
-4.42436e-09
6.96234e-10
-4.39905e-09
-1.83132e-10
-3.84795e-09
-1.39065e-09
-2.64151e-09
-2.92729e-09
-7.15314e-10
-4.6543e-09
1.85885e-09
-6.25731e-09
4.81476e-09
-7.28185e-09
7.66871e-09
-7.2251e-09
9.71205e-09
-5.5771e-09
9.97099e-09
-1.60827e-09
7.1015e-09
6.53232e-09
2.34149e-08
4.58782e-10
-2.42867e-10
4.48662e-10
-1.10095e-09
2.1947e-09
-2.29263e-09
3.10214e-09
-3.55175e-09
3.22759e-09
-4.70215e-09
2.88824e-09
-5.62026e-09
2.23373e-09
-6.18615e-09
1.26212e-09
-6.25936e-09
-1.09918e-10
-5.67988e-09
-1.97012e-09
-4.30503e-09
-4.30214e-09
-2.0787e-09
-6.88063e-09
8.87739e-10
-9.22375e-09
4.2501e-09
-1.06442e-08
7.40652e-09
-1.03815e-08
9.50809e-09
-7.67868e-09
9.50252e-09
-1.60271e-09
6.32259e-09
9.71225e-09
2.97325e-08
4.93042e-12
-3.34948e-10
7.8361e-10
-1.39723e-09
3.25699e-09
-2.87375e-09
4.57866e-09
-4.46448e-09
4.81832e-09
-5.95156e-09
4.37531e-09
-7.1761e-09
3.45828e-09
-7.98938e-09
2.0754e-09
-8.22877e-09
1.29472e-10
-7.72107e-09
-2.47782e-09
-6.32338e-09
-5.69983e-09
-3.99724e-09
-9.20678e-09
-8.92796e-10
-1.23282e-08
2.5871e-09
-1.41241e-08
5.76673e-09
-1.35611e-08
7.7365e-09
-9.64845e-09
7.48812e-09
-1.35433e-09
4.28239e-09
1.2918e-08
3.5415e-08
-1.40005e-09
-4.00262e-10
1.18387e-09
-1.61047e-09
4.46719e-09
-3.31628e-09
6.28446e-09
-5.20114e-09
6.70318e-09
-7.01102e-09
6.1852e-09
-8.55263e-09
4.99988e-09
-9.65131e-09
3.17408e-09
-1.01298e-08
6.07973e-10
-9.81384e-09
-2.79379e-09
-8.57294e-09
-6.94074e-09
-6.39195e-09
-1.13878e-08
-3.45062e-09
-1.52695e-08
-1.80661e-10
-1.73941e-08
2.72554e-09
-1.64673e-08
4.39337e-09
-1.13163e-08
3.93968e-09
-9.00628e-10
9.41328e-10
1.59163e-08
4.02301e-08
-3.87382e-09
-4.17041e-10
1.60091e-09
-1.68171e-09
5.73187e-09
-3.51894e-09
8.12169e-09
-5.61817e-09
8.80242e-09
-7.70001e-09
8.26704e-09
-9.54134e-09
6.84121e-09
-1.09473e-08
4.58006e-09
-1.17355e-08
1.39611e-09
-1.1743e-08
-2.78626e-09
-1.0863e-08
-7.82071e-09
-9.10486e-09
-1.31459e-08
-6.66065e-09
-1.77137e-08
-3.9494e-09
-2.01053e-08
-1.61065e-09
-1.88061e-08
-4.18181e-10
-1.25088e-08
-1.05172e-09
-2.67085e-10
-3.67421e-09
1.85388e-08
4.40107e-08
-7.45481e-09
-3.68818e-10
1.96973e-09
-1.56283e-09
6.92588e-09
-3.39221e-09
9.95106e-09
-5.58015e-09
1.09904e-08
-7.83912e-09
1.0526e-08
-9.92622e-09
8.92831e-09
-1.16355e-08
6.28937e-09
-1.27905e-08
2.55107e-09
-1.32518e-08
-2.325e-09
-1.29445e-08
-8.12794e-09
-1.1899e-08
-1.41914e-08
-1.02965e-08
-1.93162e-08
-8.49695e-09
-2.19049e-08
-7.02331e-09
-2.02797e-08
-6.46933e-09
-1.30627e-08
-7.28596e-09
5.49549e-10
-9.43217e-09
2.0685e-08
4.66648e-08
-1.20862e-08
-2.49472e-10
2.2192e-09
-1.23035e-09
7.90677e-09
-2.88125e-09
1.1602e-08
-4.99016e-09
1.30993e-08
-7.28571e-09
1.28216e-08
-9.52169e-09
1.11643e-08
-1.14944e-08
8.26212e-09
-1.30459e-08
4.10255e-09
-1.40705e-08
-1.30044e-09
-1.453e-08
-7.66845e-09
-1.44682e-08
-1.42532e-08
-1.403e-08
-1.97544e-08
-1.34704e-08
-2.24644e-08
-1.31364e-08
-2.06138e-08
-1.33887e-08
-1.28104e-08
-1.44339e-08
1.5947e-09
-1.6082e-08
2.23332e-08
4.81815e-08
-1.75988e-08
-6.6687e-11
2.28589e-09
-6.96827e-10
8.53691e-09
-1.98745e-09
1.28926e-08
-3.82171e-09
1.49335e-08
-5.97394e-09
1.49738e-08
-8.21787e-09
1.34082e-08
-1.03697e-08
1.04139e-08
-1.23034e-08
6.03628e-09
-1.39554e-08
3.51514e-10
-1.53241e-08
-6.29976e-09
-1.64582e-08
-1.31191e-08
-1.74426e-08
-1.87699e-08
-1.83909e-08
-2.15162e-08
-1.94301e-08
-1.95746e-08
-2.06548e-08
-1.15857e-08
-2.20252e-08
2.96511e-09
-2.32428e-08
2.35508e-08
4.86404e-08
-2.37017e-08
1.16795e-10
2.16909e-09
-6.45819e-11
8.71828e-09
-7.50413e-10
1.35784e-08
-1.93661e-09
1.61197e-08
-3.48926e-09
1.65265e-08
-5.25487e-09
1.51738e-08
-7.10905e-09
1.22681e-08
-8.98053e-09
7.90776e-09
-1.08532e-08
2.2242e-09
-1.27528e-08
-4.40014e-09
-1.4718e-08
-1.1154e-08
-1.67626e-08
-1.67253e-08
-1.88558e-08
-1.9423e-08
-2.09165e-08
-1.75139e-08
-2.28105e-08
-9.69159e-09
-2.43276e-08
4.48213e-09
-2.51467e-08
2.437e-08
4.83469e-08
-2.48532e-08
3.40233e-10
1.82886e-09
5.79538e-10
8.47898e-09
3.44286e-10
1.38137e-08
-4.66996e-10
1.6931e-08
-1.79142e-09
1.78509e-08
-3.51572e-09
1.68981e-08
-5.55045e-09
1.43028e-08
-7.86379e-09
1.02211e-08
-1.04829e-08
4.84326e-09
-1.34636e-08
-1.41943e-09
-1.68408e-08
-7.77672e-09
-2.05632e-08
-1.3003e-08
-2.44525e-08
-1.55337e-08
-2.8207e-08
-1.37594e-08
-3.14369e-08
-6.46177e-09
-3.37068e-08
6.75207e-09
-3.45806e-08
2.52438e-08
4.74404e-08
-3.36741e-08
6.26633e-10
1.20223e-09
1.4711e-09
7.63451e-09
1.97031e-09
1.33145e-08
1.88269e-09
1.70186e-08
1.14668e-09
1.85869e-08
-2.15853e-10
1.82607e-08
-2.19262e-09
1.62796e-08
-4.82262e-09
1.28511e-08
-8.19642e-09
8.21706e-09
-1.24096e-08
2.79379e-09
-1.74873e-08
-2.69907e-09
-2.32958e-08
-7.19442e-09
-2.94789e-08
-9.35058e-09
-3.54652e-08
-7.77316e-09
-4.05432e-08
-1.38372e-09
-4.39934e-08
1.02022e-08
-4.52192e-08
2.64696e-08
4.60701e-08
-4.38489e-08
9.12485e-10
2.89743e-10
2.45784e-09
6.08915e-09
3.91851e-09
1.18538e-08
4.90708e-09
1.603e-08
5.19519e-09
1.82988e-08
4.65391e-09
1.88019e-08
3.16781e-09
1.77657e-08
5.92908e-10
1.5426e-08
-3.24461e-09
1.20546e-08
-8.4937e-09
8.04287e-09
-1.51745e-08
3.98173e-09
-2.30775e-08
7.08534e-10
-3.16851e-08
-7.42908e-10
-4.01672e-08
7.08916e-10
-4.74892e-08
5.9383e-09
-5.26194e-08
1.53324e-08
-5.47415e-08
2.85917e-08
4.47411e-08
-5.34125e-08
1.07393e-09
-7.84186e-10
3.19723e-09
3.96586e-09
5.62153e-09
9.42949e-09
7.85819e-09
1.37934e-08
9.51361e-09
1.66434e-08
1.02772e-08
1.80383e-08
9.87322e-09
1.81697e-08
8.03093e-09
1.72683e-08
4.48723e-09
1.55983e-08
-9.60078e-10
1.34902e-08
-8.35332e-09
1.1375e-08
-1.74632e-08
9.81843e-09
-2.76993e-08
9.49321e-09
-3.81038e-08
1.11133e-08
-4.74511e-08
1.52856e-08
-5.446e-08
2.23413e-08
-5.80599e-08
3.21915e-08
4.42915e-08
-5.76102e-08
9.78499e-10
-1.76268e-09
3.28491e-09
1.65944e-09
6.34273e-09
6.37166e-09
9.6474e-09
1.04887e-08
1.27015e-08
1.35892e-08
1.50491e-08
1.56908e-08
1.62779e-08
1.69409e-08
1.60156e-08
1.75306e-08
1.39397e-08
1.76742e-08
9.81763e-09
1.76122e-08
3.5728e-09
1.76198e-08
-4.6203e-09
1.80115e-08
-1.4259e-08
1.91319e-08
-2.44851e-08
2.13395e-08
-3.41468e-08
2.49473e-08
-4.19565e-08
3.0151e-08
-4.67226e-08
3.69576e-08
4.51462e-08
-4.75773e-08
6.17184e-10
-2.37987e-09
2.66931e-09
-3.92685e-10
5.92138e-09
3.11959e-09
9.91032e-09
6.49978e-09
1.41124e-08
9.38714e-09
1.80172e-08
1.17859e-08
2.11658e-08
1.37924e-08
2.31671e-08
1.55292e-08
2.37118e-08
1.71295e-08
2.25931e-08
1.8731e-08
1.97404e-08
2.04725e-08
1.52627e-08
2.24892e-08
9.4877e-09
2.49069e-08
2.99088e-09
2.78363e-08
-3.42323e-09
3.13614e-08
-8.79542e-09
3.55232e-08
-1.21426e-08
4.03049e-08
4.56113e-08
-1.26077e-08
2.71642e-10
-2.65151e-09
2.22279e-09
-2.34383e-09
5.82571e-09
-4.83329e-10
1.06043e-08
1.72116e-09
1.60075e-08
3.98395e-09
2.15332e-08
6.26028e-09
2.67703e-08
8.55522e-09
3.14111e-08
1.08884e-08
3.52496e-08
1.32911e-08
3.81787e-08
1.58018e-08
4.01917e-08
1.84595e-08
4.13859e-08
2.1295e-08
4.19684e-08
2.43245e-08
4.22586e-08
2.75461e-08
4.26816e-08
3.09384e-08
4.37438e-08
3.4461e-08
4.59902e-08
3.80584e-08
4.16631e-08
4.99384e-08
3.78476e-10
-3.02999e-09
2.18242e-09
-4.14777e-09
5.2097e-09
-3.51061e-09
9.04332e-09
-2.11247e-09
1.32926e-08
-2.65318e-10
1.76675e-08
1.88542e-09
2.1979e-08
4.24364e-09
2.61229e-08
6.7446e-09
3.00598e-08
9.35412e-09
3.38026e-08
1.2059e-08
3.74065e-08
1.48556e-08
4.09617e-08
1.77397e-08
4.45864e-08
2.06998e-08
4.84192e-08
2.37133e-08
5.26118e-08
2.67459e-08
5.73198e-08
2.9753e-08
6.26946e-08
3.26836e-08
3.5487e-08
6.88708e-08
5.34891e-10
-3.56488e-09
2.36375e-09
-5.97662e-09
5.08848e-09
-6.23534e-09
8.32239e-09
-5.34638e-09
1.17899e-08
-3.7328e-09
1.53398e-08
-1.66447e-09
1.89076e-08
6.75792e-10
2.24859e-08
3.16636e-09
2.60993e-08
5.74072e-09
2.97945e-08
8.3638e-09
3.36335e-08
1.10166e-08
3.76887e-08
1.36845e-08
4.20385e-08
1.635e-08
4.67624e-08
1.89894e-08
5.19355e-08
2.15728e-08
5.76237e-08
2.40647e-08
6.38794e-08
2.64279e-08
2.86276e-08
7.07387e-08
4.00954e-10
-3.96583e-09
1.65656e-09
-7.23222e-09
3.38125e-09
-7.96003e-09
5.3385e-09
-7.30363e-09
7.42536e-09
-5.81966e-09
9.63252e-09
-3.87163e-09
1.1996e-08
-1.68772e-09
1.45611e-08
6.01279e-10
1.73742e-08
2.9276e-09
2.04799e-08
5.25812e-09
2.39203e-08
7.57622e-09
2.77354e-08
9.86939e-09
3.19623e-08
1.21231e-08
3.66331e-08
1.43186e-08
4.17733e-08
1.64326e-08
4.73991e-08
1.84389e-08
5.35164e-08
2.03107e-08
2.20244e-08
6.01195e-08
-3.13956e-11
-3.93444e-09
1.63443e-10
-7.42706e-09
4.60117e-10
-8.25671e-09
8.41561e-10
-7.68508e-09
1.36829e-09
-6.34639e-09
2.1313e-09
-4.63464e-09
3.20989e-09
-2.76631e-09
4.66147e-09
-8.50304e-10
6.52433e-09
1.06474e-09
8.82333e-09
2.95913e-09
1.15753e-08
4.82421e-09
1.47914e-08
6.65337e-09
1.84774e-08
8.43703e-09
2.26341e-08
1.01619e-08
2.72557e-08
1.1811e-08
3.23297e-08
1.3365e-08
3.78362e-08
1.48041e-08
1.61119e-08
4.37487e-08
-5.30583e-10
-3.40385e-09
-1.4093e-09
-6.54834e-09
-2.3889e-09
-7.27711e-09
-3.30614e-09
-6.76784e-09
-3.99928e-09
-5.65324e-09
-4.34565e-09
-4.28827e-09
-4.26966e-09
-2.8423e-09
-3.73062e-09
-1.38935e-09
-2.70949e-09
4.36227e-11
-1.20014e-09
1.44977e-09
7.96176e-10
2.8279e-09
3.27373e-09
4.17581e-09
6.22253e-09
5.48823e-09
9.62814e-09
6.75627e-09
1.34712e-08
7.96795e-09
1.7727e-08
9.10913e-09
2.23658e-08
1.01653e-08
1.11243e-08
2.73534e-08
-8.58551e-10
-2.5453e-09
-2.40166e-09
-5.00523e-09
-4.12801e-09
-5.55076e-09
-5.75347e-09
-5.14238e-09
-7.09324e-09
-4.31348e-09
-8.04157e-09
-3.33993e-09
-8.54827e-09
-2.3356e-09
-8.59478e-09
-1.34283e-09
-8.17863e-09
-3.72536e-10
-7.3045e-09
5.75644e-10
-5.98129e-09
1.50469e-09
-4.22041e-09
2.41493e-09
-2.03589e-09
3.30371e-09
5.55114e-10
4.16526e-09
3.53178e-09
4.99129e-09
6.86891e-09
5.77201e-09
1.0537e-08
6.4972e-09
7.15827e-09
1.45031e-08
-9.19974e-10
-1.62533e-09
-2.62336e-09
-3.30184e-09
-4.50754e-09
-3.66659e-09
-6.26637e-09
-3.38355e-09
-7.73549e-09
-2.84436e-09
-8.84211e-09
-2.23332e-09
-9.56125e-09
-1.61646e-09
-9.88996e-09
-1.01413e-09
-9.83393e-09
-4.28565e-10
-9.40159e-09
1.43304e-10
-8.6019e-09
7.05011e-10
-7.44484e-09
1.25787e-09
-5.94183e-09
1.8007e-09
-4.10658e-09
2.33001e-09
-1.9559e-09
2.8406e-09
4.90064e-10
3.32605e-09
3.2078e-09
3.77947e-09
4.19553e-09
6.17054e-09
-7.70064e-10
-8.55266e-10
-2.24393e-09
-1.82797e-09
-3.87046e-09
-2.04006e-09
-5.37777e-09
-1.87623e-09
-6.64176e-09
-1.58036e-09
-7.62017e-09
-1.25491e-09
-8.30455e-09
-9.32072e-10
-8.69905e-09
-6.19634e-10
-8.81099e-09
-3.16621e-10
-8.64755e-09
-2.01377e-11
-8.21497e-09
2.72433e-10
-7.51933e-09
5.62231e-10
-6.56747e-09
8.48842e-10
-5.3679e-09
1.13044e-09
-3.93144e-09
1.40414e-09
-2.27163e-09
1.66623e-09
-4.0476e-10
1.9126e-09
2.14045e-09
1.65032e-09
-5.2003e-10
-3.35236e-10
-1.57024e-09
-7.77759e-10
-2.73639e-09
-8.73919e-10
-3.8117e-09
-8.00918e-10
-4.71577e-09
-6.76294e-10
-5.42807e-09
-5.42614e-10
-5.94815e-09
-4.11993e-10
-6.28139e-09
-2.86396e-10
-6.43339e-09
-1.64612e-10
-6.40851e-09
-4.50269e-11
-6.20986e-09
7.37842e-11
-5.83998e-09
1.9235e-10
-5.30176e-09
3.10631e-10
-4.59918e-09
4.27857e-10
-3.73781e-09
5.42774e-10
-2.7253e-09
6.53717e-10
-1.57131e-09
7.58606e-10
8.56012e-10
-2.86868e-10
-2.66428e-10
-6.88083e-11
-8.58582e-10
-1.85604e-10
-1.52263e-09
-2.09867e-10
-2.13214e-09
-1.91412e-10
-2.6462e-09
-1.62239e-10
-3.05713e-09
-1.31679e-10
-3.36683e-09
-1.02295e-10
-3.57904e-09
-7.41836e-11
-3.69677e-09
-4.68799e-11
-3.7219e-09
-1.99029e-11
-3.65527e-09
7.15212e-12
-3.49733e-09
3.4419e-11
-3.24863e-09
6.19287e-11
-2.91027e-09
8.94901e-11
-2.48429e-09
1.16794e-10
-1.97399e-09
1.4342e-10
-1.38408e-09
1.68701e-10
1.91959e-10
-7.20031e-10
-6.88083e-11
-2.54412e-10
-4.64279e-10
-6.55691e-10
-8.1793e-10
-9.49609e-10
-1.0519e-09
-1.12609e-09
-1.17297e-09
-1.19287e-09
-1.18572e-09
-1.1513e-09
-1.08937e-09
-9.9988e-10
-8.83086e-10
-7.39666e-10
-5.70964e-10
-3.79005e-10
1.0806e-10
-1.0806e-10
6.66881e-10
-5.58821e-10
1.71469e-09
-1.04781e-09
3.17469e-09
-1.45999e-09
4.9277e-09
-1.75301e-09
6.83998e-09
-1.91228e-09
8.77955e-09
-1.93957e-09
1.06278e-08
-1.84822e-09
1.22874e-08
-1.65961e-09
1.36872e-08
-1.39982e-09
1.47838e-08
-1.0966e-09
1.55604e-08
-7.76646e-10
1.60237e-08
-4.63292e-10
1.61984e-08
-1.74705e-10
1.61205e-08
7.79758e-11
1.5831e-08
2.89448e-10
1.53681e-08
4.62893e-10
1.47616e-08
6.06502e-10
1.40283e-08
7.33352e-10
1.3169e-08
8.59294e-10
1.21682e-08
1.00076e-09
1.09954e-08
1.17283e-09
9.60778e-09
1.38761e-09
7.95459e-09
1.65318e-09
5.98095e-09
1.97365e-09
3.63123e-09
2.34971e-09
8.52128e-10
2.77911e-09
-2.40583e-09
3.25796e-09
-6.18733e-09
3.78149e-09
-1.053e-08
4.34269e-09
-1.54627e-08
4.93265e-09
-2.1004e-08
5.54129e-09
-2.71604e-08
6.15648e-09
-3.39245e-08
6.76406e-09
-4.12726e-08
7.34812e-09
-4.91641e-08
7.89146e-09
-5.75404e-08
8.37628e-09
-6.63253e-08
8.78494e-09
-7.54261e-08
9.10084e-09
-8.47353e-08
9.30917e-09
-9.41331e-08
9.39774e-09
-1.03491e-07
9.35751e-09
-1.12674e-07
9.1831e-09
-1.21547e-07
8.87297e-09
-1.29976e-07
8.42949e-09
-1.37835e-07
7.85873e-09
-1.45005e-07
7.17013e-09
-1.51381e-07
6.37591e-09
-1.56871e-07
5.49043e-09
-1.61401e-07
4.52933e-09
-1.6491e-07
3.50905e-09
-1.67357e-07
2.44721e-09
-1.68718e-07
1.36118e-09
-1.68985e-07
2.66926e-10
-1.6816e-07
-8.24828e-10
-1.6627e-07
-1.89061e-09
-1.63355e-07
-2.91486e-09
-1.59467e-07
-3.8874e-09
-1.5467e-07
-4.79732e-09
-1.49035e-07
-5.63534e-09
-1.42641e-07
-6.39341e-09
-1.35577e-07
-7.06464e-09
-1.27933e-07
-7.64322e-09
-1.19809e-07
-8.12448e-09
-1.11304e-07
-8.50482e-09
-1.02522e-07
-8.7819e-09
-9.35676e-08
-8.95465e-09
-8.45441e-08
-9.02346e-09
-7.55539e-08
-8.99022e-09
-6.66954e-08
-8.85845e-09
-5.80621e-08
-8.6333e-09
-4.97406e-08
-8.32155e-09
-4.18091e-08
-7.93151e-09
-3.43362e-08
-7.47284e-09
-2.73799e-08
-6.95636e-09
-2.09862e-08
-6.39371e-09
-1.51891e-08
-5.79704e-09
-1.00105e-08
-5.17865e-09
-5.45986e-09
-4.55061e-09
-1.53547e-09
-3.92439e-09
1.77511e-09
-3.31058e-09
4.49425e-09
-2.71914e-09
6.65232e-09
-2.15807e-09
8.28575e-09
-1.63342e-09
9.43582e-09
-1.15007e-09
1.01474e-08
-7.11604e-10
1.04675e-08
-3.20121e-10
1.04442e-08
2.33448e-11
1.01241e-08
3.20077e-10
9.5522e-09
5.71921e-10
8.77134e-09
7.8086e-10
7.82068e-09
9.50663e-10
6.73575e-09
1.08493e-09
5.54819e-09
1.18756e-09
4.28562e-09
1.26257e-09
2.97172e-09
1.31389e-09
1.62658e-09
1.34514e-09
2.67321e-10
1.35926e-09
-1.0917e-09
1.35902e-09
-2.4386e-09
1.3469e-09
-3.76353e-09
1.32493e-09
-5.05833e-09
1.29481e-09
-6.31624e-09
1.25791e-09
-7.53162e-09
1.21537e-09
-8.69976e-09
1.16814e-09
-9.81677e-09
1.11701e-09
-1.08795e-08
1.06269e-09
-1.18853e-08
1.00581e-09
-1.28322e-08
9.46973e-10
-1.3719e-08
8.86744e-10
-1.45447e-08
8.25681e-10
-1.5309e-08
7.6432e-10
-1.60122e-08
7.03181e-10
-1.66549e-08
6.42756e-10
-1.72384e-08
5.83504e-10
-1.77643e-08
5.25842e-10
-1.82344e-08
4.70141e-10
-1.86511e-08
4.16719e-10
-1.9017e-08
3.65843e-10
-1.93347e-08
3.17725e-10
-1.96072e-08
2.72526e-10
-1.98376e-08
2.30353e-10
-2.00288e-08
1.91268e-10
-2.01841e-08
1.55284e-10
-2.03065e-08
1.22375e-10
-2.0399e-08
9.24785e-11
-2.04645e-08
6.55008e-11
-2.05058e-08
4.13208e-11
-2.05256e-08
1.97574e-11
-2.05272e-08
1.62791e-12
-2.05114e-08
-1.5793e-11
-2.04813e-08
-3.01152e-11
-2.04389e-08
-4.23879e-11
-2.03861e-08
-5.28436e-11
-2.03244e-08
-6.16174e-11
-2.02556e-08
-6.88757e-11
-2.01808e-08
-7.47686e-11
-2.01013e-08
-7.94488e-11
-2.00183e-08
-8.30616e-11
-1.99325e-08
-8.57446e-11
-1.98449e-08
-8.76245e-11
-1.97561e-08
-8.88163e-11
-1.96667e-08
-8.94248e-11
-1.95771e-08
-8.95436e-11
-1.94879e-08
-8.92586e-11
-1.93992e-08
-8.86466e-11
-1.93114e-08
-8.77778e-11
-1.92247e-08
-8.6714e-11
-1.91392e-08
-8.55102e-11
-1.9055e-08
-8.42131e-11
-1.89721e-08
-8.28624e-11
-1.88907e-08
-8.14926e-11
-1.88105e-08
-8.01316e-11
-1.87317e-08
-7.88011e-11
-1.86542e-08
-7.75199e-11
-1.85779e-08
-7.63015e-11
-1.85027e-08
-7.51566e-11
-1.84286e-08
-7.4092e-11
-1.83555e-08
-7.31124e-11
-1.82833e-08
-7.22196e-11
-1.82119e-08
-7.14142e-11
-1.81412e-08
-7.06931e-11
-1.80712e-08
-7.00523e-11
-1.80017e-08
-6.94829e-11
-1.79327e-08
-6.89726e-11
-1.78642e-08
-6.84996e-11
-1.77962e-08
-6.80249e-11
-1.77287e-08
-6.74751e-11
-1.7662e-08
-6.66963e-11
-1.75966e-08
-6.53598e-11
-1.75339e-08
-6.27913e-11
-1.74761e-08
-5.77495e-11
-1.74277e-08
-4.83605e-11
-1.73947e-08
-3.30124e-11
-1.73803e-08
-1.43871e-11
-1.73719e-08
-8.43963e-12
-1.73192e-08
-5.27174e-11
-1.71123e-08
-2.06886e-10
-1.64622e-08
-6.50124e-10
-2.03492e-09
-1.44273e-08
6.11636e-10
-7.19695e-10
2.28187e-09
-2.22906e-09
4.85262e-09
-3.61856e-09
8.12485e-09
-4.73222e-09
1.18629e-08
-5.49102e-09
1.58178e-08
-5.86724e-09
1.97477e-08
-5.86948e-09
2.34333e-08
-5.53377e-09
2.66894e-08
-4.91579e-09
2.9373e-08
-4.08335e-09
3.13854e-08
-3.10904e-09
3.26722e-08
-2.06338e-09
3.32177e-08
-1.00881e-09
3.30376e-08
5.4039e-12
3.21681e-08
9.47459e-10
3.06533e-08
1.80424e-09
2.85343e-08
2.58189e-09
2.58373e-08
3.30353e-09
2.2565e-08
4.00562e-09
1.86917e-08
4.73258e-09
1.41622e-08
5.53029e-09
8.89461e-09
6.4404e-09
2.78689e-09
7.49533e-09
-4.27507e-09
8.71514e-09
-1.24085e-08
1.01071e-08
-2.17242e-08
1.16654e-08
-3.23187e-08
1.33736e-08
-4.42676e-08
1.52068e-08
-5.76186e-08
1.71326e-08
-7.23877e-08
1.91118e-08
-8.85537e-08
2.10986e-08
-1.06054e-07
2.30415e-08
-1.24782e-07
2.48842e-08
-1.44585e-07
2.65677e-08
-1.6527e-07
2.80329e-08
-1.86603e-07
2.9224e-08
-2.08317e-07
3.00909e-08
-2.30125e-07
3.05925e-08
-2.51723e-07
3.06987e-08
-2.72805e-07
3.03917e-08
-2.93074e-07
2.96662e-08
-3.12246e-07
2.85294e-08
-3.30063e-07
2.70001e-08
-3.46296e-07
2.51066e-08
-3.60752e-07
2.28854e-08
-3.73272e-07
2.03788e-08
-3.83735e-07
1.76332e-08
-3.92056e-07
1.46968e-08
-3.98184e-07
1.16183e-08
-4.021e-07
8.44528e-09
-4.03814e-07
5.22321e-09
-4.0336e-07
1.99339e-09
-4.00796e-07
-1.20279e-09
-3.9621e-07
-4.3192e-09
-3.89716e-07
-7.31942e-09
-3.81427e-07
-1.01796e-08
-3.71464e-07
-1.28772e-08
-3.59959e-07
-1.53928e-08
-3.47047e-07
-1.77092e-08
-3.32871e-07
-1.98118e-08
-3.17576e-07
-2.16876e-08
-3.01316e-07
-2.33254e-08
-2.84243e-07
-2.47159e-08
-2.66516e-07
-2.58512e-08
-2.48295e-07
-2.67256e-08
-2.29742e-07
-2.73353e-08
-2.11018e-07
-2.7679e-08
-1.92283e-07
-2.77579e-08
-1.73697e-07
-2.75766e-08
-1.55413e-07
-2.71427e-08
-1.37579e-07
-2.64674e-08
-1.20334e-07
-2.55657e-08
-1.0381e-07
-2.44558e-08
-8.81235e-08
-2.31594e-08
-7.33787e-08
-2.17011e-08
-5.96645e-08
-2.01079e-08
-4.7053e-08
-1.84085e-08
-3.55988e-08
-1.66329e-08
-2.53382e-08
-1.48112e-08
-1.62893e-08
-1.29732e-08
-8.45234e-09
-1.11475e-08
-1.81061e-09
-9.36087e-09
3.6687e-09
-7.63738e-09
8.03363e-09
-5.99836e-09
1.13446e-08
-4.461e-09
1.36718e-08
-3.03883e-09
1.50938e-08
-1.74211e-09
1.56947e-08
-5.7758e-10
1.55625e-08
4.52312e-10
1.47858e-08
1.34859e-09
1.34517e-08
2.11493e-09
1.16449e-08
2.75746e-09
9.44562e-09
3.28424e-09
6.92847e-09
3.70472e-09
4.16174e-09
4.0293e-09
1.20696e-09
4.26868e-09
-1.88118e-09
4.43328e-09
-5.05452e-09
4.53259e-09
-8.27122e-09
4.57573e-09
-1.14951e-08
4.57083e-09
-1.46953e-08
4.52511e-09
-1.78454e-08
4.44486e-09
-2.0923e-08
4.33549e-09
-2.39093e-08
4.20168e-09
-2.67886e-08
4.0475e-09
-2.95481e-08
3.87653e-09
-3.21774e-08
3.69196e-09
-3.46683e-08
3.49667e-09
-3.70146e-08
3.2933e-09
-3.92122e-08
3.08433e-09
-4.12585e-08
2.87204e-09
-4.31528e-08
2.6586e-09
-4.48956e-08
2.44599e-09
-4.64889e-08
2.23605e-09
-4.79359e-08
2.03043e-09
-4.92406e-08
1.83059e-09
-5.04083e-08
1.63781e-09
-5.14447e-08
1.45315e-09
-5.23563e-08
1.27747e-09
-5.31501e-08
1.11146e-09
-5.38331e-08
9.55604e-10
-5.4413e-08
8.10221e-10
-5.48972e-08
6.75467e-10
-5.52933e-08
5.51353e-10
-5.56087e-08
4.37762e-10
-5.58506e-08
3.34467e-10
-5.60263e-08
2.4115e-10
-5.61424e-08
1.57416e-10
-5.62055e-08
8.28446e-11
-5.6221e-08
1.71511e-11
-5.61958e-08
-4.10002e-11
-5.61345e-08
-9.14295e-11
-5.6042e-08
-1.34872e-10
-5.59229e-08
-1.71953e-10
-5.57813e-08
-2.03237e-10
-5.56209e-08
-2.2928e-10
-5.5445e-08
-2.50618e-10
-5.52567e-08
-2.67765e-10
-5.50585e-08
-2.81214e-10
-5.48529e-08
-2.91428e-10
-5.46416e-08
-2.98838e-10
-5.44266e-08
-3.03836e-10
-5.42093e-08
-3.06787e-10
-5.39908e-08
-3.08018e-10
-5.37722e-08
-3.07827e-10
-5.35544e-08
-3.06479e-10
-5.3338e-08
-3.04215e-10
-5.31234e-08
-3.01245e-10
-5.29112e-08
-2.97755e-10
-5.27015e-08
-2.93906e-10
-5.24945e-08
-2.89836e-10
-5.22903e-08
-2.85663e-10
-5.2089e-08
-2.81482e-10
-5.18904e-08
-2.77376e-10
-5.16945e-08
-2.73409e-10
-5.15012e-08
-2.69634e-10
-5.13103e-08
-2.6609e-10
-5.11215e-08
-2.62809e-10
-5.09348e-08
-2.59813e-10
-5.07499e-08
-2.5712e-10
-5.05666e-08
-2.54742e-10
-5.03846e-08
-2.52684e-10
-5.02037e-08
-2.50948e-10
-5.00237e-08
-2.49531e-10
-4.98442e-08
-2.48419e-10
-4.96652e-08
-2.47578e-10
-4.94862e-08
-2.46931e-10
-4.93074e-08
-2.46304e-10
-4.91288e-08
-2.45293e-10
-4.89512e-08
-2.43006e-10
-4.87764e-08
-2.37593e-10
-4.86084e-08
-2.25734e-10
-4.84538e-08
-2.02952e-10
-4.83193e-08
-1.67476e-10
-4.82011e-08
-1.32648e-10
-4.80581e-08
-1.51387e-10
-4.77637e-08
-3.47129e-10
-4.70369e-08
-9.33707e-10
-4.54312e-08
-2.25585e-09
-5.1312e-09
-4.23349e-08
9.06072e-10
-1.62577e-09
3.24289e-09
-4.56588e-09
6.67049e-09
-7.04616e-09
1.08583e-08
-8.92005e-09
1.54781e-08
-1.01108e-08
2.02125e-08
-1.06017e-08
2.47672e-08
-1.04241e-08
2.88817e-08
-9.64826e-09
3.23379e-08
-8.37206e-09
3.49647e-08
-6.71015e-09
3.66385e-08
-4.78279e-09
3.72804e-08
-2.70533e-09
3.68504e-08
-5.78757e-10
3.53366e-08
1.51916e-09
3.27447e-08
3.53936e-09
2.90846e-08
5.46436e-09
2.43579e-08
7.30854e-09
1.85473e-08
9.11421e-09
1.16075e-08
1.09454e-08
3.46268e-09
1.28774e-08
-5.99215e-09
1.49851e-08
-1.68834e-08
1.73316e-08
-2.9347e-08
1.9959e-08
-4.35146e-08
2.28827e-08
-5.9499e-08
2.60915e-08
-7.73814e-08
2.95478e-08
-9.71994e-08
3.31917e-08
-1.18937e-07
3.69443e-08
-1.42516e-07
4.07117e-08
-1.67792e-07
4.43881e-08
-1.94554e-07
4.78601e-08
-2.22524e-07
5.10116e-08
-2.51369e-07
5.37297e-08
-2.80712e-07
5.59103e-08
-3.10143e-07
5.74642e-08
-3.39241e-07
5.83221e-08
-3.67588e-07
5.84371e-08
-3.94782e-07
5.77871e-08
-4.20457e-07
5.63738e-08
-4.44287e-07
5.42218e-08
-4.65996e-07
5.13751e-08
-4.85361e-07
4.78938e-08
-5.02211e-07
4.38504e-08
-5.16429e-07
3.93251e-08
-5.27947e-07
3.4403e-08
-5.36738e-07
2.91699e-08
-5.42815e-07
2.37104e-08
-5.46224e-07
1.81052e-08
-5.47035e-07
1.243e-08
-5.45344e-07
6.75388e-09
-5.4126e-07
1.13938e-09
-5.3492e-07
-4.34681e-09
-5.26476e-07
-9.64719e-09
-5.16068e-07
-1.47268e-08
-5.03831e-07
-1.95568e-08
-4.89902e-07
-2.41085e-08
-4.74421e-07
-2.83573e-08
-4.57532e-07
-3.22819e-08
-4.39378e-07
-3.58639e-08
-4.20103e-07
-3.90867e-08
-3.99854e-07
-4.1936e-08
-3.78781e-07
-4.43988e-08
-3.57033e-07
-4.64637e-08
-3.34763e-07
-4.81211e-08
-3.12125e-07
-4.93634e-08
-2.89275e-07
-5.01854e-08
-2.66369e-07
-5.05851e-08
-2.43563e-07
-5.05641e-08
-2.21011e-07
-5.01283e-08
-1.98866e-07
-4.92882e-08
-1.77274e-07
-4.80596e-08
-1.56376e-07
-4.64637e-08
-1.36304e-07
-4.45269e-08
-1.17183e-07
-4.22805e-08
-9.91236e-08
-3.97609e-08
-8.22232e-08
-3.70082e-08
-6.6566e-08
-3.40658e-08
-5.22196e-08
-3.09792e-08
-3.92355e-08
-2.77954e-08
-2.76475e-08
-2.45612e-08
-1.74721e-08
-2.13229e-08
-8.70846e-09
-1.81245e-08
-1.33856e-09
-1.50073e-08
4.67171e-09
-1.20086e-08
9.37213e-09
-9.16142e-09
1.28267e-08
-6.49344e-09
1.51119e-08
-4.02725e-09
1.63133e-08
-1.77899e-09
1.65244e-08
2.41189e-10
1.58442e-08
2.0288e-09
1.43744e-08
3.58476e-09
1.2217e-08
4.91479e-09
9.47303e-09
6.02824e-09
6.23979e-09
6.93796e-09
2.60988e-09
7.65921e-09
-1.33022e-09
8.20878e-09
-5.50197e-09
8.60503e-09
-9.83406e-09
8.86469e-09
-1.42627e-08
9.00438e-09
-1.87316e-08
9.03969e-09
-2.31914e-08
8.98492e-09
-2.75996e-08
8.85307e-09
-3.19198e-08
8.65569e-09
-3.61212e-08
8.40305e-09
-4.01781e-08
8.10437e-09
-4.40694e-08
7.76791e-09
-4.77785e-08
7.40106e-09
-5.12924e-08
7.01052e-09
-5.46015e-08
6.60241e-09
-5.76995e-08
6.18234e-09
-6.05829e-08
5.75544e-09
-6.32507e-08
5.32641e-09
-6.57042e-08
4.8995e-09
-6.79467e-08
4.47853e-09
-6.99831e-08
4.06688e-09
-7.182e-08
3.66748e-09
-7.3465e-08
3.28281e-09
-7.49268e-08
2.91492e-09
-7.62148e-08
2.56543e-09
-7.73389e-08
2.23559e-09
-7.83096e-08
1.92626e-09
-7.91373e-08
1.63796e-09
-7.98327e-08
1.37091e-09
-8.04064e-08
1.12504e-09
-8.08687e-08
9.00075e-10
-8.12298e-08
6.95497e-10
-8.14993e-08
5.10644e-10
-8.16866e-08
3.44713e-10
-8.18005e-08
1.96811e-10
-8.18493e-08
6.59519e-11
-8.18411e-08
-4.92531e-11
-8.1783e-08
-1.49532e-10
-8.16816e-08
-2.36227e-10
-8.15432e-08
-3.10389e-10
-8.13733e-08
-3.73136e-10
-8.1177e-08
-4.25562e-10
-8.09589e-08
-4.68709e-10
-8.07231e-08
-5.03591e-10
-8.04731e-08
-5.31164e-10
-8.02122e-08
-5.52335e-10
-7.99431e-08
-5.67945e-10
-7.96682e-08
-5.78769e-10
-7.93895e-08
-5.8552e-10
-7.91086e-08
-5.88844e-10
-7.88271e-08
-5.89328e-10
-7.85461e-08
-5.87495e-10
-7.82665e-08
-5.83816e-10
-7.79891e-08
-5.78706e-10
-7.77143e-08
-5.72531e-10
-7.74426e-08
-5.65606e-10
-7.71742e-08
-5.58205e-10
-7.69093e-08
-5.50558e-10
-7.66479e-08
-5.42863e-10
-7.639e-08
-5.3528e-10
-7.61355e-08
-5.27944e-10
-7.58842e-08
-5.20961e-10
-7.56358e-08
-5.1442e-10
-7.53903e-08
-5.08391e-10
-7.51471e-08
-5.02929e-10
-7.49062e-08
-4.98084e-10
-7.4667e-08
-4.93896e-10
-7.44293e-08
-4.904e-10
-7.41926e-08
-4.87633e-10
-7.39565e-08
-4.85626e-10
-7.37205e-08
-4.84406e-10
-7.34841e-08
-4.83977e-10
-7.32468e-08
-4.84291e-10
-7.30079e-08
-4.85149e-10
-7.27672e-08
-4.86002e-10
-7.25247e-08
-4.85534e-10
-7.22813e-08
-4.8098e-10
-7.20395e-08
-4.67551e-10
-7.18027e-08
-4.39774e-10
-7.15706e-08
-3.99537e-10
-7.13255e-08
-3.77749e-10
-7.10021e-08
-4.74755e-10
-7.04338e-08
-9.15494e-10
-6.93118e-08
-2.05564e-09
-6.73202e-08
-4.24746e-09
-8.13071e-09
-6.43207e-08
1.02029e-09
-2.64605e-09
3.59923e-09
-7.14483e-09
7.28585e-09
-1.07328e-08
1.16504e-08
-1.32846e-08
1.62906e-08
-1.4751e-08
2.08392e-08
-1.51502e-08
2.49717e-08
-1.45567e-08
2.84125e-08
-1.30891e-08
3.09369e-08
-1.08965e-08
3.23707e-08
-8.14387e-09
3.25856e-08
-4.99778e-09
3.14935e-08
-1.61319e-09
2.90351e-08
1.87965e-09
2.51691e-08
5.38519e-09
1.98611e-08
8.84733e-09
1.30716e-08
1.22539e-08
4.74455e-09
1.56356e-08
-5.19952e-09
1.90583e-08
-1.68655e-08
2.26114e-08
-3.03788e-08
2.63907e-08
-4.58742e-08
3.04805e-08
-6.34798e-08
3.49373e-08
-8.32994e-08
3.97786e-08
-1.05394e-07
4.49771e-08
-1.29764e-07
5.04617e-08
-1.56338e-07
5.61222e-08
-1.84964e-07
6.18174e-08
-2.15403e-07
6.73834e-08
-2.47335e-07
7.26436e-08
-2.80365e-07
7.74182e-08
-3.1404e-07
8.15348e-08
-3.47866e-07
8.48377e-08
-3.81333e-07
8.7197e-08
-4.13938e-07
8.85151e-08
-4.45205e-07
8.87305e-08
-4.74702e-07
8.78198e-08
-5.02061e-07
8.57957e-08
-5.26978e-07
8.27037e-08
-5.4922e-07
7.86167e-08
-5.68628e-07
7.36294e-08
-5.85104e-07
6.78511e-08
-5.98611e-07
6.14005e-08
-6.0916e-07
5.43996e-08
-6.16804e-07
4.69696e-08
-6.21629e-07
3.92274e-08
-6.23742e-07
3.12828e-08
-6.23268e-07
2.3237e-08
-6.20345e-07
1.51819e-08
-6.15114e-07
7.19934e-09
-6.07723e-07
-6.37789e-10
-5.98332e-07
-8.25176e-09
-5.87085e-07
-1.55931e-08
-5.74106e-07
-2.26265e-08
-5.59514e-07
-2.93185e-08
-5.43434e-07
-3.56365e-08
-5.2599e-07
-4.15525e-08
-5.07305e-07
-4.70427e-08
-4.87501e-07
-5.2086e-08
-4.66701e-07
-5.66637e-08
-4.45029e-07
-6.07586e-08
-4.2261e-07
-6.4355e-08
-3.99571e-07
-6.74378e-08
-3.76042e-07
-6.99933e-08
-3.52154e-07
-7.20091e-08
-3.28042e-07
-7.34747e-08
-3.03845e-07
-7.43826e-08
-2.79702e-07
-7.47287e-08
-2.55752e-07
-7.45136e-08
-2.32137e-07
-7.37433e-08
-2.08995e-07
-7.24301e-08
-1.86462e-07
-7.0593e-08
-1.64667e-07
-6.82582e-08
-1.43735e-07
-6.5459e-08
-1.2378e-07
-6.22355e-08
-1.04907e-07
-5.86341e-08
-8.72085e-08
-5.47067e-08
-7.0765e-08
-5.05093e-08
-5.56429e-08
-4.61013e-08
-4.18943e-08
-4.1544e-08
-2.95563e-08
-3.68993e-08
-1.8651e-08
-3.22282e-08
-9.18527e-09
-2.75902e-08
-1.1512e-09
-2.30413e-08
5.47357e-09
-1.86334e-08
1.07264e-08
-1.44142e-08
1.46589e-08
-1.0426e-08
1.73349e-08
-6.70319e-09
1.8829e-08
-3.27308e-09
1.92259e-08
-1.55707e-10
1.86169e-08
2.63776e-09
1.71021e-08
5.09955e-09
1.47832e-08
7.23373e-09
1.17648e-08
9.04662e-09
8.1513e-09
1.05514e-08
4.04471e-09
1.17658e-08
-4.5703e-10
1.27105e-08
-5.26087e-09
1.34089e-08
-1.02819e-08
1.38857e-08
-1.54422e-08
1.41647e-08
-2.06717e-08
1.42692e-08
-2.5908e-08
1.42212e-08
-3.10966e-08
1.40417e-08