/*--------------------------------*- C++ -*----------------------------------*\
  =========                 |
  \\      /  F ield         | OpenFOAM: The Open Source CFD Toolbox
   \\    /   O peration     | Website:  https://openfoam.org
    \\  /    A nd           | Version:  8
     \\/     M anipulation  |
\*---------------------------------------------------------------------------*/
FoamFile
{
    version     2.0;
    format      ascii;
    class       volVectorField;
    location    "0.32";
    object      U;
}
// * * * * * * * * * * * * * * * * * * * * * * * * * * * * * * * * * * * * * //

dimensions      [0 1 -1 0 0 0 0];

internalField   nonuniform List<vector> 
12225
(
(7.30952e-05 -9.25411e-06 0)
(-2.1442e-05 4.41566e-06 0)
(-0.000313207 8.08288e-06 0)
(-0.000644371 8.33813e-06 0)
(-0.00094257 6.98084e-06 0)
(-0.00117795 4.15715e-06 0)
(-0.00131924 -2.39466e-07 0)
(-0.00132722 -7.59336e-06 0)
(-0.0011381 -1.94376e-05 0)
(-0.000670459 -3.70176e-05 0)
(0.000154796 -5.99077e-05 0)
(0.00137595 -8.50969e-05 0)
(0.00294958 -0.000107176 0)
(0.00472991 -0.000120467 0)
(0.00649107 -0.000121147 0)
(0.00796824 -9.19517e-05 0)
(0.00887977 -0.000115717 0)
(0.00358266 0.00346393 0)
(0.000148807 -1.24646e-05 0)
(-0.000220406 9.33688e-05 0)
(-0.0011141 0.000147863 0)
(-0.00213389 0.000154754 0)
(-0.003068 0.000136902 0)
(-0.00382396 0.000100602 0)
(-0.00430668 4.22417e-05 0)
(-0.00440348 -5.0777e-05 0)
(-0.00394242 -0.00019443 0)
(-0.00271395 -0.00039942 0)
(-0.000526522 -0.000658462 0)
(0.00269248 -0.000935108 0)
(0.00679216 -0.00116519 0)
(0.0113398 -0.00127035 0)
(0.0156478 -0.00117097 0)
(0.0187442 -0.000703431 0)
(0.0193687 0.000793993 0)
(0.00848863 0.00934033 0)
(0.000173161 8.6031e-06 0)
(-0.000537312 0.00029779 0)
(-0.0020439 0.000456399 0)
(-0.0037732 0.000482746 0)
(-0.00538131 0.000434426 0)
(-0.0067092 0.0003301 0)
(-0.00759643 0.000159714 0)
(-0.00786164 -0.000109247 0)
(-0.00724347 -0.000517257 0)
(-0.00543685 -0.00108799 0)
(-0.00217974 -0.00179465 0)
(0.00259729 -0.00253176 0)
(0.00861999 -0.00311694 0)
(0.0151794 -0.00332055 0)
(0.0211414 -0.00288223 0)
(0.0248395 -0.00133229 0)
(0.0241588 0.00291673 0)
(0.0107723 0.0169649 0)
(0.000161346 7.1976e-05 0)
(-0.000916371 0.000640705 0)
(-0.00300897 0.000962527 0)
(-0.0054313 0.00102719 0)
(-0.00772153 0.000936707 0)
(-0.00965247 0.000728362 0)
(-0.0109992 0.000383163 0)
(-0.0115193 -0.000158335 0)
(-0.0108845 -0.000968713 0)
(-0.00872895 -0.00208448 0)
(-0.00476113 -0.00344301 0)
(0.0010541 -0.00483191 0)
(0.00831681 -0.00588883 0)
(0.016079 -0.00615189 0)
(0.0228432 -0.00507907 0)
(0.0264644 -0.00179298 0)
(0.0244713 0.00608493 0)
(0.0106519 0.0254443 0)
(0.000129187 0.000195029 0)
(-0.00128823 0.00113531 0)
(-0.00389031 0.00168015 0)
(-0.00694071 0.00180953 0)
(-0.00987993 0.00167239 0)
(-0.0124142 0.00132948 0)
(-0.0142578 0.000751971 0)
(-0.0151178 -0.000150059 0)
(-0.0146237 -0.00148386 0)
(-0.0123845 -0.00329403 0)
(-0.00811541 -0.00546373 0)
(-0.00183573 -0.00763888 0)
(0.00594419 -0.00922517 0)
(0.0141059 -0.00946312 0)
(0.0209259 -0.0074637 0)
(0.024072 -0.00194985 0)
(0.0211668 0.00984842 0)
(0.00822518 0.0337959 0)
(9.18712e-05 0.000380835 0)
(-0.0015777 0.00177594 0)
(-0.0045553 0.00260439 0)
(-0.0081115 0.00283458 0)
(-0.011615 0.00265728 0)
(-0.0147115 0.00215933 0)
(-0.0170609 0.00130296 0)
(-0.0183338 -3.16787e-05 0)
(-0.0181426 -0.00198372 0)
(-0.0161047 -0.00459706 0)
(-0.0119713 -0.00768256 0)
(-0.00582238 -0.0107164 0)
(0.00175426 -0.0128366 0)
(0.00956418 -0.012947 0)
(0.0158226 -0.00979544 0)
(0.0182819 -0.00179708 0)
(0.0149401 0.0137977 0)
(0.00365009 0.0414661 0)
(6.25062e-05 0.000619505 0)
(-0.00171674 0.00253773 0)
(-0.00487856 0.00371086 0)
(-0.00875753 0.00408917 0)
(-0.0126826 0.00389299 0)
(-0.0162502 0.00323504 0)
(-0.019077 0.00207151 0)
(-0.0208123 0.000257401 0)
(-0.021077 -0.00237026 0)
(-0.0195263 -0.00584317 0)
(-0.0159669 -0.00988503 0)
(-0.0105328 -0.0137857 0)
(-0.00383862 -0.016401 0)
(0.00294763 -0.0162901 0)
(0.00815346 -0.0118729 0)
(0.00982063 -0.00137677 0)
(0.00643971 0.0176141 0)
(-0.00279029 0.0481521 0)
(5.0576e-05 0.000886457 0)
(-0.00165785 0.00337078 0)
(-0.00476635 0.00494708 0)
(-0.00872944 0.00553221 0)
(-0.0128747 0.00535667 0)
(-0.016768 0.00455549 0)
(-0.019998 0.00308343 0)
(-0.022211 0.000779321 0)
(-0.0230588 -0.00253101 0)
(-0.0222579 -0.00685441 0)
(-0.0196806 -0.0118192 0)
(-0.0154958 -0.0165282 0)
(-0.0102849 -0.0195658 0)
(-0.00508544 -0.0191751 0)
(-0.00131491 -0.013507 0)
(-0.000500056 -0.000732368 0)
(-0.00364991 0.0210667 0)
(-0.0106811 0.053619 0)
(6.06043e-05 0.00114447 0)
(-0.00138607 0.00420123 0)
(-0.00418105 0.00623057 0)
(-0.00795028 0.00709008 0)
(-0.0120644 0.00699475 0)
(-0.0160852 0.00609443 0)
(-0.0195945 0.00434802 0)
(-0.0222548 0.00159074 0)
(-0.0237689 -0.002347 0)
(-0.0239286 -0.00743528 0)
(-0.0226732 -0.0132081 0)
(-0.0201806 -0.0186001 0)
(-0.0169384 -0.0219617 0)
(-0.0137603 -0.0212784 0)
(-0.0117002 -0.0145102 0)
(-0.0117932 0.000122049 0)
(-0.0145754 0.0239859 0)
(-0.0194883 0.0576974 0)
(9.14503e-05 0.00134888 0)
(-0.000925811 0.0049381 0)
(-0.00315863 0.00745248 0)
(-0.00644506 0.00865649 0)
(-0.0102463 0.00871953 0)
(-0.0141539 0.00779469 0)
(-0.0177695 0.00585048 0)
(-0.0207926 0.00273297 0)
(-0.0229924 -0.00170629 0)
(-0.0242409 -0.00739118 0)
(-0.0245381 -0.0137735 0)
(-0.0240425 -0.019658 0)
(-0.023098 -0.023225 0)
(-0.0222263 -0.0222835 0)
(-0.0220536 -0.0146912 0)
(-0.0231159 0.00121392 0)
(-0.0255356 0.0262955 0)
(-0.0285751 0.0603229 0)
(0.00013682 0.00145524 0)
(-0.000338886 0.00548511 0)
(-0.0018123 0.00848708 0)
(-0.0043544 0.0100973 0)
(-0.0075615 0.0104084 0)
(-0.011093 0.00956204 0)
(-0.0146016 0.00754003 0)
(-0.0178441 0.00421353 0)
(-0.0206679 -0.000530159 0)
(-0.0230208 -0.00656386 0)
(-0.0249515 -0.0132791 0)
(-0.0265764 -0.0194074 0)
(-0.0280638 -0.0230445 0)
(-0.0296116 -0.0219209 0)
(-0.0314027 -0.0138772 0)
(-0.0335053 0.00260613 0)
(-0.0356983 0.0280026 0)
(-0.0372402 0.0615179 0)
(0.000182737 0.0014312 0)
(0.000234754 0.00573692 0)
(-0.000442149 0.00915124 0)
(-0.00212593 0.0111694 0)
(-0.0045673 0.0117884 0)
(-0.00752099 0.0111261 0)
(-0.0107156 0.00917661 0)
(-0.0139778 0.0058447 0)
(-0.0172312 0.0010606 0)
(-0.0204904 -0.00500601 0)
(-0.023833 -0.0117187 0)
(-0.0273259 -0.0178035 0)
(-0.0309695 -0.0213654 0)
(-0.0346669 -0.0201567 0)
(-0.038217 -0.01207 0)
(-0.0413198 0.00428558 0)
(-0.0435215 0.0291566 0)
(-0.0441186 0.061481 0)
(0.000225943 0.00129055 0)
(0.000767075 0.00573434 0)
(0.000885707 0.0094969 0)
(0.000126768 0.011923 0)
(-0.00142597 0.0129036 0)
(-0.00364196 0.0125217 0)
(-0.00634705 0.0107824 0)
(-0.00944905 0.00762848 0)
(-0.0129469 0.00303703 0)
(-0.0169135 -0.00278721 0)
(-0.0214388 -0.00920341 0)
(-0.0265442 -0.0149865 0)
(-0.0320828 -0.018329 0)
(-0.0377051 -0.0170868 0)
(-0.0428832 -0.00925583 0)
(-0.0470018 0.00644537 0)
(-0.0494074 0.0301425 0)
(-0.0494622 0.0606842 0)
(0.000263557 0.000983046 0)
(0.00124706 0.00538493 0)
(0.00217525 0.00943081 0)
(0.00245084 0.0122878 0)
(0.00197632 0.0137293 0)
(0.000741256 0.013786 0)
(-0.00120835 0.0124724 0)
(-0.00388097 0.00977649 0)
(-0.00735606 0.00572852 0)
(-0.0117624 0.000558005 0)
(-0.0171969 -0.0051273 0)
(-0.0236342 -0.0102172 0)
(-0.0308086 -0.0130961 0)
(-0.0381648 -0.0118377 0)
(-0.0449079 -0.00462208 0)
(-0.0501418 0.00973278 0)
(-0.0530474 0.0313463 0)
(-0.0530191 0.0591617 0)
(0.000279324 0.000483774 0)
(0.00154268 0.00457945 0)
(0.0031328 0.00875368 0)
(0.00438444 0.0119856 0)
(0.00504191 0.0139437 0)
(0.00495022 0.0145984 0)
(0.00401125 0.0139696 0)
(0.00210698 0.0120884 0)
(-0.000918951 0.00903438 0)
(-0.00524029 0.00504752 0)
(-0.01097 0.000655034 0)
(-0.0180482 -0.00322703 0)
(-0.0261482 -0.00528204 0)
(-0.0346161 -0.00392844 0)
(-0.0425101 0.0023708 0)
(-0.0487584 0.014685 0)
(-0.0524371 0.0332289 0)
(-0.0528999 0.0572319 0)
(0.000254606 -0.000170799 0)
(0.0015243 0.00331684 0)
(0.00344492 0.00736552 0)
(0.00537967 0.0107966 0)
(0.00698457 0.0132174 0)
(0.00799645 0.0145526 0)
(0.00819657 0.0148239 0)
(0.00737334 0.0140957 0)
(0.00531238 0.0124864 0)
(0.00181607 0.0102232 0)
(-0.00323746 0.00771185 0)
(-0.00980254 0.00562027 0)
(-0.0175762 0.0048781 0)
(-0.0259448 0.00661672 0)
(-0.0340097 0.0119847 0)
(-0.0407267 0.0218693 0)
(-0.0451307 0.036609 0)
(-0.0465168 0.0558302 0)
(0.000182858 -0.000850387 0)
(0.00116358 0.00178654 0)
(0.00299649 0.00539314 0)
(0.0051507 0.0087232 0)
(0.00728615 0.0113897 0)
(0.00910237 0.0133115 0)
(0.0103256 0.0145168 0)
(0.0107028 0.0150875 0)
(0.0100054 0.0151541 0)
(0.00804474 0.0149121 0)
(0.0047064 0.0146486 0)
(4.37111e-06 0.0147688 0)
(-0.00586006 0.0158086 0)
(-0.0124462 0.0184276 0)
(-0.0190861 0.0233144 0)
(-0.0249575 0.0310636 0)
(-0.0292386 0.0420154 0)
(-0.0312597 0.0561314 0)
(8.2981e-05 -0.00136064 0)
(0.00062821 0.000327607 0)
(0.00210915 0.00318744 0)
(0.00411078 0.00605424 0)
(0.00635504 0.00861271 0)
(0.00856801 0.010816 0)
(0.0104963 0.0127064 0)
(0.0119144 0.0143678 0)
(0.012634 0.0159157 0)
(0.0125131 0.0174964 0)
(0.0114722 0.0192893 0)
(0.00951392 0.0215077 0)
(0.0067467 0.0243965 0)
(0.00340733 0.0282288 0)
(-0.000132178 0.0332868 0)
(-0.00339184 0.0398256 0)
(-0.00585259 0.0480242 0)
(-0.00706154 0.0579371 0)
(-4.32802e-06 -0.00157815 0)
(0.000278177 -0.000850919 0)
(0.00155474 0.00098918 0)
(0.00345048 0.00304567 0)
(0.00572748 0.00511225 0)
(0.00815334 0.00717909 0)
(0.0105334 0.00928757 0)
(0.0127137 0.0114978 0)
(0.0145819 0.0138836 0)
(0.0160684 0.0165305 0)
(0.0171474 0.0195313 0)
(0.0178372 0.0229792 0)
(0.0182027 0.0269609 0)
(0.0183579 0.0315502 0)
(0.0184667 0.0368029 0)
(0.0187358 0.0427509 0)
(0.0193879 0.0494 0)
(0.0206252 0.0567309 0)
(9.59345e-06 -0.00175854 0)
(0.000486975 -0.0020527 0)
(0.00200425 -0.00128455 0)
(0.00412323 -7.82588e-05 0)
(0.0065792 0.0014203 0)
(0.00917541 0.00318077 0)
(0.0117783 0.00519645 0)
(0.0143046 0.00747178 0)
(0.0167126 0.0100246 0)
(0.018995 0.0128851 0)
(0.0211726 0.0160898 0)
(0.0232894 0.0196742 0)
(0.025408 0.0236653 0)
(0.0276056 0.0280751 0)
(0.0299698 0.0328965 0)
(0.0325946 0.0381013 0)
(0.0355654 0.043642 0)
(0.0389548 0.0494607 0)
(4.21025e-05 -0.00207546 0)
(0.000742318 -0.00333016 0)
(0.00238901 -0.00338217 0)
(0.00449772 -0.00275403 0)
(0.00682324 -0.00161252 0)
(0.00923438 -5.23264e-05 0)
(0.0116702 0.00185529 0)
(0.0141106 0.00406243 0)
(0.0165626 0.00654517 0)
(0.0190515 0.00929839 0)
(0.021615 0.0123274 0)
(0.0242996 0.0156392 0)
(0.0271576 0.019236 0)
(0.0302434 0.0231097 0)
(0.033611 0.0272399 0)
(0.0373102 0.0315921 0)
(0.0413765 0.0361206 0)
(0.0458428 0.0407746 0)
(3.81075e-05 -0.00242057 0)
(0.000632648 -0.00446445 0)
(0.00188746 -0.0050532 0)
(0.00337444 -0.00475232 0)
(0.00496901 -0.003808 0)
(0.00664713 -0.00239381 0)
(0.00843133 -0.000634146 0)
(0.010356 0.00139305 0)
(0.0124572 0.0036464 0)
(0.0147707 0.00610793 0)
(0.0173306 0.00877199 0)
(0.020169 0.0116358 0)
(0.0233164 0.0146931 0)
(0.0268004 0.01793 0)
(0.0306439 0.021324 0)
(0.0348643 0.0248431 0)
(0.0394663 0.0284484 0)
(0.0444637 0.0321001 0)
(-3.05147e-05 -0.00256993 0)
(-1.54359e-05 -0.0050072 0)
(0.000260922 -0.00580472 0)
(0.000559171 -0.00562217 0)
(0.000946355 -0.00479247 0)
(0.00150473 -0.00354367 0)
(0.00231718 -0.00201774 0)
(0.00344523 -0.000294192 0)
(0.00493018 0.00158964 0)
(0.00679907 0.00361939 0)
(0.00907013 0.00579064 0)
(0.0117556 0.00810074 0)
(0.0148632 0.0105434 0)
(0.018396 0.0131065 0)
(0.0223519 0.0157703 0)
(0.026723 0.0185088 0)
(0.0314914 0.0212906 0)
(0.0366551 0.0240839 0)
(-0.000135886 -0.00239077 0)
(-0.000983214 -0.00476638 0)
(-0.00194036 -0.00552886 0)
(-0.00297956 -0.00536739 0)
(-0.00385431 -0.00465675 0)
(-0.00442145 -0.00363244 0)
(-0.00457952 -0.00242077 0)
(-0.00427216 -0.00108273 0)
(-0.00347116 0.0003575 0)
(-0.00216508 0.00189438 0)
(-0.000352891 0.00352808 0)
(0.00196196 0.00525886 0)
(0.00477109 0.00708308 0)
(0.00806198 0.0089919 0)
(0.0118173 0.0109708 0)
(0.0160146 0.0129997 0)
(0.0206224 0.0150548 0)
(0.0256259 0.0171117 0)
(-0.000224162 -0.00192472 0)
(-0.0018524 -0.00390365 0)
(-0.00384572 -0.00451174 0)
(-0.00592336 -0.00436194 0)
(-0.00773169 -0.00380624 0)
(-0.00911897 -0.00304672 0)
(-0.00999832 -0.00217678 0)
(-0.0103348 -0.00123494 0)
(-0.0101191 -0.000232382 0)
(-0.00935407 0.000831751 0)
(-0.00804854 0.00196124 0)
(-0.00621466 0.00315827 0)
(-0.00386739 0.00442166 0)
(-0.00102529 0.00574593 0)
(0.00228934 0.00712117 0)
(0.00604949 0.00853329 0)
(0.0102196 0.0099652 0)
(0.0147765 0.0113994 0)
(-0.000256677 -0.00132941 0)
(-0.00229776 -0.00276193 0)
(-0.00483684 -0.00318851 0)
(-0.00741936 -0.0030689 0)
(-0.00966335 -0.00268489 0)
(-0.011443 -0.00218444 0)
(-0.0126991 -0.00162666 0)
(-0.013419 -0.00103195 0)
(-0.0136074 -0.000403309 0)
(-0.0132753 0.000262836 0)
(-0.0124346 0.000971268 0)
(-0.0110983 0.00172495 0)
(-0.0092805 0.00252411 0)
(-0.00699833 0.00336572 0)
(-0.00427226 0.00424361 0)
(-0.00112729 0.00514875 0)
(0.00240427 0.00606988 0)
(0.0062964 0.00699576 0)
(-0.000227391 -0.000769944 0)
(-0.0022319 -0.00166294 0)
(-0.00477197 -0.00192588 0)
(-0.00731815 -0.00184706 0)
(-0.00952142 -0.00161935 0)
(-0.0112942 -0.00133416 0)
(-0.0126036 -0.00102329 0)
(-0.0134521 -0.000695576 0)
(-0.0138507 -0.000350368 0)
(-0.0138115 1.59273e-05 0)
(-0.0133451 0.000407199 0)
(-0.0124607 0.000826046 0)
(-0.0111681 0.00127316 0)
(-0.00947914 0.00174719 0)
(-0.00740866 0.00224478 0)
(-0.00497541 0.00276073 0)
(-0.00220441 0.00328832 0)
(0.000879441 0.00382154 0)
(-0.000156308 -0.000351274 0)
(-0.0017631 -0.000808057 0)
(-0.00386443 -0.000942045 0)
(-0.00595359 -0.00090052 0)
(-0.00775583 -0.000791343 0)
(-0.00922035 -0.000659308 0)
(-0.010333 -0.000518148 0)
(-0.011103 -0.000370638 0)
(-0.0115412 -0.000215413 0)
(-0.011657 -5.00718e-05 0)
(-0.011457 0.000127571 0)
(-0.0109458 0.000319273 0)
(-0.0101282 0.000525607 0)
(-0.0090099 0.000746121 0)
(-0.0075994 0.000979348 0)
(-0.00590812 0.00122278 0)
(-0.00395271 0.00147289 0)
(-0.00175252 0.00172665 0)
(-7.41673e-05 -0.000105346 0)
(-0.00107865 -0.000271792 0)
(-0.00245547 -0.000319761 0)
(-0.00381745 -0.000304368 0)
(-0.00499007 -0.000268416 0)
(-0.00595143 -0.000226482 0)
(-0.00669806 -0.000182569 0)
(-0.00723874 -0.00013703 0)
(-0.00758094 -8.90424e-05 0)
(-0.00772985 -3.75641e-05 0)
(-0.0076881 1.81888e-05 0)
(-0.00745681 7.90703e-05 0)
(-0.00703677 0.000145307 0)
(-0.00642946 0.000216815 0)
(-0.005638 0.000293147 0)
(-0.00466755 0.000373448 0)
(-0.00352691 0.000456232 0)
(-0.00222847 0.000539774 0)
(-1.17613e-05 -5.33949e-06 0)
(-0.000351552 -2.27955e-05 0)
(-0.000851418 -2.64355e-05 0)
(-0.00134358 -2.49265e-05 0)
(-0.00176685 -2.26716e-05 0)
(-0.00211743 -1.99761e-05 0)
(-0.00239574 -1.73013e-05 0)
(-0.00260572 -1.4518e-05 0)
(-0.00274996 -1.15153e-05 0)
(-0.00282981 -8.16793e-06 0)
(-0.0028455 -4.42587e-06 0)
(-0.0027966 -1.22559e-07 0)
(-0.00268247 4.74872e-06 0)
(-0.0025027 1.01919e-05 0)
(-0.00225746 1.61739e-05 0)
(-0.00194772 2.26375e-05 0)
(-0.00157593 2.94282e-05 0)
(-0.00114709 3.5961e-05 0)
(-1.86681e-05 5.78922e-05 -1.0168e-21)
(0.000263339 -7.95651e-05 1.29378e-21)
(0.000973666 -0.000288893 0)
(0.00210253 -0.000476602 0)
(0.00355415 -0.000611071 0)
(0.00520945 -0.000684051 -1.28466e-21)
(0.00694733 -0.000697954 0)
(0.00865487 -0.000661529 0)
(0.010235 -0.000587255 0)
(0.0116119 -0.000489231 0)
(0.0127344 -0.000381462 1.30003e-21)
(0.0135757 -0.000276502 0)
(0.0141317 -0.000184461 0)
(0.0144172 -0.000112384 0)
(0.0144602 -6.39325e-05 0)
(0.0142959 -3.94022e-05 1.34398e-21)
(0.0139609 -3.63965e-05 0)
(0.0134861 -5.02804e-05 0)
(0.012893 -7.48666e-05 0)
(0.0121894 -0.000103284 0)
(0.0113686 -0.000128851 0)
(0.0104093 -0.000145754 0)
(0.0092778 -0.000149466 0)
(0.0079311 -0.000137065 1.45666e-21)
(0.00632081 -0.000107096 -1.4782e-21)
(0.00439619 -5.8964e-05 1.50228e-21)
(0.00210731 7.38339e-06 1.52912e-21)
(-0.000592951 9.17489e-05 0)
(-0.00374814 0.000194052 0)
(-0.00739606 0.000314529 -1.59654e-21)
(-0.0115676 0.000453577 -1.61579e-21)
(-0.0162856 0.000611292 0)
(-0.0215626 0.00078717 0)
(-0.0273994 0.000979951 -1.67142e-21)
(-0.033783 0.00118749 0)
(-0.0406857 0.00140666 0)
(-0.0480633 0.00163324 1.71399e-21)
(-0.0558558 0.00186191 0)
(-0.0639872 0.0020863 1.72756e-21)
(-0.0723673 0.00229917 3.45622e-21)
(-0.0808931 0.00249271 0)
(-0.0894519 0.00265896 0)
(-0.0979241 0.00279035 0)
(-0.106187 0.00288025 0)
(-0.114117 0.0029234 0)
(-0.121595 0.00291638 3.22882e-21)
(-0.128509 0.00285772 3.14695e-21)
(-0.134756 0.00274811 3.05229e-21)
(-0.140245 0.00259026 0)
(-0.144899 0.00238882 -2.82632e-21)
(-0.148654 0.00214959 0)
(-0.151465 0.00187816 2.55626e-21)
(-0.153298 0.00157897 2.40706e-21)
(-0.154137 0.001257 0)
(-0.153978 0.000921924 0)
(-0.152832 0.000582525 0)
(-0.150727 0.00024586 1.73911e-21)
(-0.147707 -8.11194e-05 0)
(-0.143821 -0.000392563 0)
(-0.139129 -0.000683721 0)
(-0.133699 -0.000950621 0)
(-0.127606 -0.00118998 0)
(-0.120932 -0.0013992 0)
(-0.113762 -0.00157628 0)
(-0.106187 -0.00171987 0)
(-0.0982997 -0.00182921 -2.94626e-22)
(-0.0901946 -0.00190414 0)
(-0.0819675 -0.00194513 0)
(-0.0737132 -0.0019533 -1.72002e-23)
(-0.0655241 -0.00193033 -9.23096e-23)
(-0.057489 -0.00187855 0)
(-0.0496914 -0.0018008 1.96878e-22)
(-0.0422081 -0.0017004 -2.26496e-22)
(-0.0351077 -0.00158106 0)
(-0.0284496 -0.00144674 2.42908e-22)
(-0.022283 -0.00130155 0)
(-0.0166461 -0.00114956 0)
(-0.0115659 -0.000994752 -1.75505e-22)
(-0.00705812 -0.000840795 0)
(-0.00312755 -0.000690984 8.51006e-23)
(0.000231282 -0.000548166 0)
(0.00303308 -0.000414766 2.71898e-23)
(0.00530163 -0.000292511 8.72477e-23)
(0.00706677 -0.000182654 1.47918e-22)
(0.00836378 -8.60108e-05 4.1656e-22)
(0.00923197 -2.82554e-06 -5.35063e-22)
(0.0097134 6.71466e-05 0)
(0.00985174 0.000124543 0)
(0.00969068 0.000170036 0)
(0.00927256 0.000204919 -9.6432e-22)
(0.00863805 0.000230628 -1.05709e-21)
(0.00782516 0.000248478 1.1435e-21)
(0.0068686 0.000259675 0)
(0.00579958 0.000265415 -1.29726e-21)
(0.0046457 0.000266812 -1.36484e-21)
(0.00343084 0.00026486 -1.42648e-21)
(0.00217544 0.000260366 0)
(0.000896846 0.000253933 0)
(-0.00039024 0.000246119 0)
(-0.00167352 0.000237401 -1.60944e-21)
(-0.00294278 0.000228116 0)
(-0.00418952 0.000218479 0)
(-0.00540666 0.000208625 1.68887e-21)
(-0.0065883 0.000198639 0)
(-0.00772947 0.000188568 0)
(-0.00882602 0.00017844 1.73259e-21)
(-0.00987447 0.000168271 0)
(-0.010872 0.000158079 0)
(-0.0118163 0.000147885 -1.74655e-21)
(-0.0127056 0.000137721 -1.74549e-21)
(-0.0135388 0.000127624 0)
(-0.0143151 0.000117642 1.73588e-21)
(-0.0150344 0.000107828 0)
(-0.0156969 9.82379e-05 -1.71751e-21)
(-0.0163035 8.89285e-05 0)
(-0.0168551 7.99536e-05 -1.69178e-21)
(-0.0173536 7.13623e-05 -1.6766e-21)
(-0.0178006 6.31973e-05 0)
(-0.0181984 5.54936e-05 0)
(-0.0185494 4.82781e-05 0)
(-0.0188562 4.15696e-05 0)
(-0.0191216 3.53782e-05 0)
(-0.0193484 2.97061e-05 0)
(-0.0195395 2.45475e-05 0)
(-0.0196977 1.98894e-05 -1.52027e-21)
(-0.0198259 1.57111e-05 1.49837e-21)
(-0.0199269 1.19848e-05 0)
(-0.0200035 8.66339e-06 0)
(-0.0200581 5.63825e-06 0)
(-0.0200936 2.89411e-06 0)
(-0.0201121 1.29596e-06 2.77548e-21)
(-0.0201153 -1.8176e-07 0)
(-0.0201056 -1.57996e-06 -2.68804e-21)
(-0.020085 -2.79361e-06 2.64489e-21)
(-0.0200551 -3.78985e-06 0)
(-0.0200175 -4.57393e-06 0)
(-0.0199735 -5.16767e-06 0)
(-0.0199244 -5.59676e-06 -2.47697e-21)
(-0.0198713 -5.88533e-06 -2.43627e-21)
(-0.0198152 -6.05505e-06 0)
(-0.0197569 -6.12504e-06 -2.35646e-21)
(-0.0196972 -6.11222e-06 -2.31735e-21)
(-0.0196366 -6.03126e-06 2.27875e-21)
(-0.0195757 -5.89514e-06 0)
(-0.019515 -5.71532e-06 0)
(-0.0194548 -5.50196e-06 2.16592e-21)
(-0.0193954 -5.26412e-06 0)
(-0.019337 -5.00966e-06 0)
(-0.0192798 -4.74542e-06 0)
(-0.019224 -4.47708e-06 0)
(-0.0191695 -4.20937e-06 -1.9868e-21)
(-0.0191165 -3.946e-06 -1.95214e-21)
(-0.0190649 -3.68993e-06 0)
(-0.0190148 -3.44339e-06 -1.88381e-21)
(-0.0189661 -3.20794e-06 0)
(-0.0189187 -2.98463e-06 0)
(-0.0188726 -2.77395e-06 -1.78354e-21)
(-0.0188278 -2.57605e-06 0)
(-0.018784 -2.39058e-06 -1.71799e-21)
(-0.0187414 -2.21688e-06 0)
(-0.0186997 -2.05383e-06 0)
(-0.0186589 -1.89996e-06 -1.62131e-21)
(-0.0186189 -1.75328e-06 0)
(-0.0185796 -1.61121e-06 -1.5578e-21)
(-0.018541 -1.47016e-06 0)
(-0.018503 -1.32514e-06 0)
(-0.0184657 -1.1688e-06 0)
(-0.0184289 -9.88828e-07 1.43251e-21)
(-0.018393 -7.62538e-07 0)
(-0.0183582 -4.44028e-07 -1.3704e-21)
(-0.0183255 6.00719e-08 0)
(-0.0182966 9.22489e-07 0)
(-0.0182751 2.42508e-06 0)
(-0.0182672 4.94582e-06 0)
(-0.0182795 8.60611e-06 0)
(-0.0183083 1.17785e-05 0)
(-0.0183265 9.84308e-06 0)
(-0.0182965 2.24856e-06 2.20203e-21)
(-0.0179929 -1.3e-05 0)
(-0.0162058 -0.000324608 0)
(9.69828e-05 -0.000632058 3.20616e-21)
(0.00111505 -0.0022413 -4.12647e-21)
(0.00299637 -0.00383789 0)
(0.00563388 -0.00515546 2.72666e-21)
(0.00880275 -0.00606616 0)
(0.0122757 -0.0065289 1.34978e-21)
(0.0158322 -0.00655678 -2.69997e-21)
(0.019266 -0.0061997 -2.6982e-21)
(0.0223954 -0.00553169 0)
(0.0250731 -0.00463992 -2.70744e-21)
(0.0271906 -0.00361498 -1.35654e-21)
(0.0286796 -0.00254228 0)
(0.0295093 -0.00149505 0)
(0.0296809 -0.000528978 0)
(0.0292184 0.000321002 0)
(0.02816 0.00104316 -1.4089e-21)
(0.0265449 0.00164654 0)
(0.0244045 0.00215837 2.8653e-21)
(0.0217524 0.00261939 0)
(0.0185782 0.00307782 0)
(0.0148446 0.00358249 -2.97266e-21)
(0.0104885 0.00417704 0)
(0.00542459 0.00489562 3.07065e-21)
(-0.000446865 0.00576032 -1.57401e-21)
(-0.00723296 0.00678101 1.58476e-21)
(-0.015039 0.00795647 -1.58626e-21)
(-0.0239611 0.00927675 -1.58685e-21)
(-0.0340803 0.0107258 0)
(-0.0454551 0.0122825 0)
(-0.0581175 0.0139215 1.58249e-21)
(-0.0720683 0.0156129 -1.53476e-21)
(-0.0872727 0.0173214 0)
(-0.103657 0.0190063 0)
(-0.121107 0.0206218 1.56159e-21)
(-0.139467 0.0221185 0)
(-0.158545 0.0234453 0)
(-0.178115 0.0245523 -1.53428e-21)
(-0.197927 0.0253934 0)
(-0.21771 0.0259293 1.49895e-21)
(-0.237188 0.0261297 -2.98895e-21)
(-0.256085 0.025975 0)
(-0.274136 0.0254574 0)
(-0.291093 0.0245807 -5.77624e-21)
(-0.306733 0.0233596 -5.68832e-21)
(-0.320862 0.0218189 -5.58653e-21)
(-0.333317 0.0199913 2.76505e-21)
(-0.343968 0.0179159 -2.63477e-21)
(-0.35272 0.0156358 -7.74527e-21)
(-0.359508 0.0131962 5.02208e-21)
(-0.364297 0.0106417 2.3788e-21)
(-0.367081 0.00801347 0)
(-0.367878 0.00535077 -2.1694e-21)
(-0.366724 0.00269576 2.13883e-21)
(-0.363672 9.304e-05 0)
(-0.358831 -0.00241722 0)
(-0.352295 -0.00480713 0)
(-0.344166 -0.00705266 -1.50885e-21)
(-0.334557 -0.00913444 0)
(-0.323587 -0.0110369 2.51394e-21)
(-0.311381 -0.0127475 0)
(-0.298068 -0.0142563 1.92956e-21)
(-0.283782 -0.0155556 0)
(-0.268662 -0.01664 -1.36698e-21)
(-0.252849 -0.0175063 0)
(-0.236488 -0.0181532 8.47986e-22)
(-0.219725 -0.0185817 -3.37583e-22)
(-0.202707 -0.018795 0)
(-0.185583 -0.0187987 -1.97612e-22)
(-0.1685 -0.0186011 1.64932e-23)
(-0.151601 -0.018213 8.9476e-23)
(-0.135026 -0.0176479 0)
(-0.118909 -0.0169218 1.4369e-22)
(-0.103376 -0.0160532 2.27001e-22)
(-0.0885417 -0.0150623 0)
(-0.0745115 -0.0139712 -2.48953e-22)
(-0.0613761 -0.0128027 4.36762e-22)
(-0.0492123 -0.0115803 0)
(-0.0380809 -0.0103275 1.85674e-22)
(-0.0280264 -0.00906673 0)
(-0.0190767 -0.0078193 -2.42038e-22)
(-0.0112426 -0.00660465 0)
(-0.00451889 -0.00544009 -1.17212e-22)
(0.0011151 -0.00434018 -9.69556e-23)
(0.0056941 -0.00331664 1.8726e-22)
(0.00926728 -0.00237807 5.03623e-22)
(0.0118931 -0.00153034 -6.29587e-22)
(0.0136389 -0.00077661 0)
(0.0145789 -0.000117451 0)
(0.0147923 0.000448893 0)
(0.0143603 0.000926862 3.24516e-21)
(0.0133639 0.00132209 1.1826e-21)
(0.0118828 0.00164129 -1.28057e-21)
(0.00999334 0.0018919 0)
(0.00776754 0.00208167 -1.45352e-21)
(0.0052719 0.00221842 1.53683e-21)
(0.00256679 0.00230967 1.60719e-21)
(-0.000293546 0.00236242 0)
(-0.00326115 0.00238276 0)
(-0.00629398 0.00237625 0)
(-0.00935544 0.00234774 1.79358e-21)
(-0.012414 0.00230129 0)
(-0.0154426 0.00224029 -3.68948e-21)
(-0.0184183 0.00216754 -5.60599e-21)
(-0.0213215 0.00208534 3.7682e-21)
(-0.0241358 0.00199561 0)
(-0.0268475 0.00190002 1.90196e-21)
(-0.0294452 0.00179996 0)
(-0.0319199 0.0016967 3.83544e-21)
(-0.0342645 0.00159137 -1.91328e-21)
(-0.0364737 0.00148504 -1.91125e-21)
(-0.038544 0.00137867 0)
(-0.0404735 0.00127319 -5.71443e-21)
(-0.0422616 0.00116942 3.78803e-21)
(-0.0439092 0.00106815 1.88573e-21)
(-0.0454184 0.000970053 0)
(-0.0467924 0.00087572 1.85684e-21)
(-0.0480352 0.00078565 5.51562e-21)
(-0.0491516 0.000700247 0)
(-0.0501474 0.000619818 3.60223e-21)
(-0.0510286 0.00054458 3.5625e-21)
(-0.0518016 0.000474664 3.52111e-21)
(-0.0524733 0.00041012 0)
(-0.0530506 0.000350925 0)
(-0.0535406 0.000296991 0)
(-0.0539502 0.000248174 -1.67118e-21)
(-0.0542863 0.00020428 -1.64973e-21)
(-0.0545558 0.000165079 0)
(-0.0547651 0.000130294 -3.20521e-21)
(-0.0549205 9.95966e-05 -3.15867e-21)
(-0.0550277 7.27677e-05 0)
(-0.0550926 5.02387e-05 -3.06632e-21)
(-0.0551206 3.08439e-05 -6.03919e-21)
(-0.0551163 1.42466e-05 2.97404e-21)
(-0.0550842 2.8972e-07 2.92813e-21)
(-0.0550285 -1.1245e-05 0)
(-0.0549529 -2.05979e-05 0)
(-0.0548609 -2.80143e-05 0)
(-0.0547555 -3.37329e-05 2.75141e-21)
(-0.0546394 -3.79777e-05 -2.70859e-21)
(-0.0545151 -4.09544e-05 -5.33222e-21)
(-0.0543845 -4.28501e-05 2.6241e-21)
(-0.0542497 -4.38336e-05 -2.58299e-21)
(-0.054112 -4.40558e-05 -2.54185e-21)
(-0.0539729 -4.36517e-05 0)
(-0.0538334 -4.27413e-05 0)
(-0.0536945 -4.14308e-05 2.42246e-21)
(-0.0535569 -3.9814e-05 0)
(-0.0534212 -3.79722e-05 0)
(-0.0532879 -3.59759e-05 -4.61318e-21)
(-0.0531572 -3.38844e-05 0)
(-0.0530295 -3.17477e-05 -2.23151e-21)
(-0.0529048 -2.96067e-05 2.19414e-21)
(-0.0527832 -2.74946e-05 0)
(-0.0526647 -2.54378e-05 -2.12112e-21)
(-0.0525493 -2.34566e-05 0)
(-0.0524368 -2.15659e-05 0)
(-0.0523272 -1.97763e-05 2.01301e-21)
(-0.0522202 -1.80949e-05 -3.95522e-21)
(-0.0521157 -1.65255e-05 1.94223e-21)
(-0.0520135 -1.50692e-05 0)
(-0.0519133 -1.37249e-05 0)
(-0.051815 -1.24892e-05 -1.8376e-21)
(-0.0517183 -1.13563e-05 0)
(-0.051623 -1.03176e-05 -1.76851e-21)
(-0.0515288 -9.35973e-06 0)
(-0.0514355 -8.46116e-06 0)
(-0.0513428 -7.5848e-06 0)
(-0.0512506 -6.65869e-06 -1.63149e-21)
(-0.0511589 -5.5345e-06 0)
(-0.0510681 -3.8981e-06 1.56332e-21)
(-0.0509793 -1.11146e-06 0)
(-0.0508955 3.9882e-06 0)
(-0.0508224 1.31043e-05 -2.92046e-21)
(-0.0507687 2.74391e-05 2.84988e-21)
(-0.0507401 4.38504e-05 0)
(-0.0507162 4.74984e-05 0)
(-0.0506283 3.92292e-06 0)
(-0.0503387 -0.000154112 -7.59595e-21)
(-0.0493063 -0.000573453 0)
(-0.0462681 -0.00162122 4.64131e-21)
(0.000151986 -0.00214423 -8.76044e-25)
(0.00163194 -0.00619724 5.48385e-21)
(0.00420038 -0.00970527 0)
(0.00764666 -0.0123985 -5.40559e-21)
(0.0116337 -0.01414 0)
(0.0158595 -0.014899 0)
(0.0200517 -0.0147247 -2.59602e-25)
(0.0239637 -0.0137266 2.66532e-21)
(0.0273817 -0.0120552 2.67111e-21)
(0.0301314 -0.00988448 2.67775e-21)
(0.0320808 -0.0073939 0)
(0.0331398 -0.00475312 0)
(0.0332556 -0.00210848 -2.73637e-21)
(0.0324059 0.000427592 -5.51489e-21)
(0.0305893 0.00278584 5.5529e-21)
(0.027814 0.0049412 0)
(0.0240862 0.0069123 5.65368e-21)
(0.0193996 0.00875527 -2.87152e-21)
(0.0137259 0.0105541 0)
(0.00700956 0.0124078 5.88459e-21)
(-0.000832895 0.014416 2.99601e-21)
(-0.00990891 0.0166656 -5.93539e-21)
(-0.0203407 0.0192194 -2.96883e-21)
(-0.0322528 0.0221094 0)
(-0.0457607 0.0253372 5.76347e-21)
(-0.0609567 0.0288754 5.6983e-21)
(-0.0778998 0.0326721 0)
(-0.0966046 0.0366557 5.56438e-21)
(-0.117033 0.040738 0)
(-0.13909 0.0448163 5.43739e-21)
(-0.162617 0.0487762 2.69902e-21)
(-0.187395 0.0524949 0)
(-0.21315 0.0558461 0)
(-0.239561 0.0587062 0)
(-0.266271 0.0609617 0)
(-0.292902 0.062516 0)
(-0.319071 0.0632952 0)
(-0.344405 0.0632517 5.16725e-21)
(-0.368555 0.0623665 -7.66491e-21)
(-0.391202 0.0606486 0)
(-0.412072 0.0581329 0)
(-0.430936 0.0548767 0)
(-0.447612 0.0509553 -1.79647e-22)
(-0.461968 0.0464575 4.83512e-21)
(-0.473916 0.04148 9.74137e-21)
(-0.483411 0.0361238 -9.60067e-21)
(-0.490443 0.0304898 -4.81062e-21)
(-0.495036 0.0246754 4.52044e-21)
(-0.49724 0.0187717 1.84838e-22)
(-0.497129 0.0128612 4.45256e-21)
(-0.49479 0.00702184 0)
(-0.490322 0.00132848 4.11351e-21)
(-0.483865 -0.00414642 1.59162e-22)
(-0.475562 -0.00934931 0)
(-0.465515 -0.014247 0)
(-0.45385 -0.0188122 -3.18374e-21)
(-0.440692 -0.0230218 0)
(-0.426165 -0.0268572 0)
(-0.410397 -0.030304 2.50925e-21)
(-0.393518 -0.0333511 4.25456e-21)
(-0.37566 -0.0359902 -1.75919e-21)
(-0.356954 -0.0382157 0)
(-0.337536 -0.0400243 1.25209e-21)
(-0.317543 -0.0414149 0)
(-0.297114 -0.0423891 9.41053e-22)
(-0.276391 -0.0429513 5.64205e-22)
(-0.255517 -0.0431089 -8.70933e-22)
(-0.234634 -0.042873 -3.16756e-22)
(-0.213886 -0.0422586 0)
(-0.193413 -0.0412848 -1.12654e-22)
(-0.173355 -0.0399753 0)
(-0.153844 -0.0383576 -8.50295e-22)
(-0.13501 -0.0364639 -6.64677e-22)
(-0.116971 -0.0343295 -7.44622e-22)
(-0.0998377 -0.0319931 7.72675e-22)
(-0.0837093 -0.0294956 -1.16673e-21)
(-0.0686721 -0.0268793 0)
(-0.0547991 -0.0241872 0)
(-0.042148 -0.0214615 4.13256e-22)
(-0.0307613 -0.0187431 3.71282e-22)
(-0.0206655 -0.0160705 0)
(-0.0118708 -0.013479 8.54359e-23)
(-0.0043714 -0.0109998 0)
(0.00185412 -0.00865972 -1.09752e-21)
(0.00684097 -0.00648048 4.61665e-23)
(0.0106408 -0.0044786 -4.15744e-23)
(0.0133156 -0.00266564 1.51518e-21)
(0.0149389 -0.00104792 0)
(0.0155922 0.000373243 -1.97989e-21)
(0.0153639 0.00160143 2.39231e-23)
(0.0143458 0.00264364 0)
(0.0126323 0.00350997 0)
(0.0103174 0.004213 0)
(0.00749293 0.00476701 2.90659e-21)
(0.0042474 0.00518727 0)
(0.000663997 0.00548925 0)
(-0.00317986 0.00568848 0)
(-0.00721465 0.00579891 0)
(-0.0113769 0.00583366 0)
(-0.0156104 0.00580454 3.52526e-21)
(-0.0198653 0.005722 0)
(-0.0240986 0.00559518 3.63158e-21)
(-0.0282727 0.00543197 3.67005e-21)
(-0.0323559 0.00523914 -3.7004e-21)
(-0.0363213 0.00502261 0)
(-0.0401464 0.00478752 -3.73919e-21)
(-0.043813 0.00453837 0)
(-0.0473067 0.00427916 -3.75223e-21)
(-0.0506163 0.00401346 3.75023e-21)
(-0.0537339 0.0037445 1.12219e-20)
(-0.0566542 0.00347518 0)
(-0.0593747 0.00320814 1.11386e-20)
(-0.061895 0.0029457 3.68877e-21)
(-0.0642168 0.00268993 0)
(-0.0663435 0.00244259 7.28228e-21)
(-0.06828 0.00220519 7.22233e-21)
(-0.0700328 0.00197893 -1.07377e-20)