/*--------------------------------*- C++ -*----------------------------------*\
  =========                 |
  \\      /  F ield         | OpenFOAM: The Open Source CFD Toolbox
   \\    /   O peration     | Website:  https://openfoam.org
    \\  /    A nd           | Version:  8
     \\/     M anipulation  |
\*---------------------------------------------------------------------------*/
FoamFile
{
    version     2.0;
    format      ascii;
    class       volScalarField;
    location    "0.78";
    object      p;
}
// * * * * * * * * * * * * * * * * * * * * * * * * * * * * * * * * * * * * * //

dimensions      [0 2 -2 0 0 0 0];

internalField   nonuniform List<scalar> 
12225
(
-0.00291466
-0.00288511
-0.00285617
-0.00283401
-0.00282404
-0.00282872
-0.00285027
-0.0028908
-0.0029528
-0.00303943
-0.00315525
-0.00330737
-0.00350766
-0.00377755
-0.004157
-0.004722
-0.0056875
-0.0079335
-0.00291441
-0.00288801
-0.00286205
-0.00284259
-0.00283509
-0.0028421
-0.00286589
-0.00290861
-0.00297275
-0.00306147
-0.00317925
-0.00333299
-0.00353388
-0.00380123
-0.00416831
-0.00469317
-0.00548938
-0.00700219
-0.00291532
-0.00289178
-0.00286912
-0.00285275
-0.00284811
-0.00285779
-0.00288411
-0.00292924
-0.00299563
-0.00308635
-0.00320567
-0.00335994
-0.00355907
-0.00381885
-0.0041635
-0.00462725
-0.00522884
-0.00617847
-0.00291766
-0.00289601
-0.00287612
-0.00286257
-0.00286055
-0.00287266
-0.00290122
-0.00294836
-0.00301643
-0.00310828
-0.00322777
-0.00338035
-0.00357396
-0.00382001
-0.00413296
-0.00452649
-0.0049744
-0.00557105
-0.00292128
-0.00290068
-0.00288302
-0.00287197
-0.00287232
-0.0028866
-0.00291707
-0.00296577
-0.00303487
-0.00312691
-0.00324512
-0.00339375
-0.00357837
-0.00380573
-0.00408157
-0.004405
-0.00473593
-0.00510811
-0.00292595
-0.00290577
-0.00288988
-0.00288105
-0.00288352
-0.00289971
-0.00293176
-0.00298157
-0.00305106
-0.00314236
-0.00325789
-0.00340053
-0.00357333
-0.00377875
-0.00401567
-0.00427413
-0.00451384
-0.00473889
-0.00293144
-0.00291118
-0.0028966
-0.00288971
-0.00289403
-0.00291184
-0.00294511
-0.00299554
-0.00306476
-0.00315435
-0.00326589
-0.00340078
-0.00355971
-0.00374152
-0.00394037
-0.00414177
-0.004311
-0.00444145
-0.00293741
-0.0029167
-0.00290301
-0.00289775
-0.00290364
-0.00292275
-0.00295683
-0.00300736
-0.00307561
-0.00316259
-0.00326897
-0.00339473
-0.00353853
-0.00369647
-0.00386001
-0.0040135
-0.00412988
-0.00420167
-0.00294346
-0.00292209
-0.00290893
-0.00290498
-0.00291212
-0.00293218
-0.00296665
-0.00301675
-0.00308335
-0.0031669
-0.00326716
-0.00338288
-0.00351108
-0.00364613
-0.00377834
-0.00389315
-0.00397108
-0.00400755
-0.00294908
-0.00292699
-0.00291409
-0.00291116
-0.00291925
-0.00293988
-0.00297432
-0.00302346
-0.00308781
-0.00316722
-0.00326069
-0.00336594
-0.00347884
-0.00359286
-0.00369838
-0.003783
-0.00383373
-0.00384943
-0.00295372
-0.00293096
-0.00291819
-0.00291603
-0.00292476
-0.00294561
-0.00297958
-0.00302729
-0.00308885
-0.00316361
-0.00324992
-0.00334473
-0.00344324
-0.00353866
-0.00362214
-0.00368386
-0.00371571
-0.0037195
-0.00295654
-0.00293333
-0.00292065
-0.00291901
-0.00292805
-0.00294879
-0.00298196
-0.00302795
-0.00308656
-0.00315677
-0.00323645
-0.00332212
-0.00340869
-0.00348949
-0.0035567
-0.00360258
-0.00362225
-0.00361947
-0.00295738
-0.00293451
-0.00292191
-0.00292068
-0.0029299
-0.00295029
-0.00298239
-0.00302637
-0.00308175
-0.00314722
-0.00322032
-0.00329731
-0.00337313
-0.00344154
-0.00349584
-0.00353015
-0.00354181
-0.00353463
-0.00295531
-0.00293364
-0.00292137
-0.00292054
-0.00292978
-0.00294948
-0.00298002
-0.00302133
-0.00307274
-0.00313267
-0.00319849
-0.00326639
-0.00333151
-0.00338831
-0.00343128
-0.00345618
-0.00346181
-0.00345141
-0.00294832
-0.00292894
-0.00291765
-0.00291729
-0.00292635
-0.00294493
-0.00297327
-0.00301116
-0.00305778
-0.00311143
-0.00316943
-0.00322814
-0.0032831
-0.00332951
-0.00336296
-0.00338042
-0.00338132
-0.00336811
-0.00293351
-0.00291795
-0.00290881
-0.00290916
-0.00291783
-0.00293477
-0.00296013
-0.00299368
-0.00303457
-0.00308114
-0.00313086
-0.00318038
-0.00322577
-0.00326294
-0.00328832
-0.00329957
-0.00329609
-0.00327936
-0.0029075
-0.00289774
-0.00289239
-0.00289398
-0.00290203
-0.00291665
-0.00293805
-0.00296606
-0.00299997
-0.00303831
-0.00307886
-0.0031187
-0.00315441
-0.00318252
-0.00319997
-0.00320466
-0.00319558
-0.00317319
-0.00286748
-0.00286572
-0.00286597
-0.00286935
-0.00287643
-0.00288777
-0.00290379
-0.00292452
-0.00294947
-0.00297751
-0.00300682
-0.00303493
-0.00305896
-0.00307589
-0.00308296
-0.00307804
-0.00305965
-0.00302737
-0.00281481
-0.00282247
-0.00282912
-0.00283405
-0.00283898
-0.00284515
-0.00285326
-0.00286362
-0.00287609
-0.00288994
-0.00290384
-0.00291589
-0.00292372
-0.00292477
-0.00291653
-0.00289675
-0.00286331
-0.00281523
-0.00277534
-0.00279044
-0.00280179
-0.00280718
-0.00280917
-0.00280927
-0.00280822
-0.0028064
-0.00280383
-0.0028001
-0.00279434
-0.00278521
-0.00277102
-0.00274986
-0.00271987
-0.00267928
-0.00262617
-0.00255915
-0.00275611
-0.00277495
-0.00278843
-0.00279375
-0.00279372
-0.00278969
-0.00278225
-0.00277167
-0.00275795
-0.00274082
-0.00271961
-0.00269337
-0.00266086
-0.0026207
-0.00257153
-0.0025121
-0.00244091
-0.00235683
-0.00275071
-0.00277087
-0.00278508
-0.0027904
-0.00278933
-0.00278281
-0.00277108
-0.00275421
-0.00273209
-0.00270438
-0.00267056
-0.0026299
-0.0025815
-0.00252442
-0.00245777
-0.0023808
-0.00229257
-0.00219227
-0.00275445
-0.00277437
-0.00278861
-0.00279435
-0.00279335
-0.00278593
-0.002772
-0.00275136
-0.0027237
-0.0026886
-0.00264552
-0.00259387
-0.00253297
-0.00246221
-0.00238106
-0.00228921
-0.00218627
-0.00207194
-0.002763
-0.00278188
-0.0027961
-0.00280288
-0.00280297
-0.00279605
-0.00278169
-0.00275942
-0.00272875
-0.00268912
-0.00263993
-0.0025806
-0.00251059
-0.00242949
-0.00233703
-0.00223319
-0.00211811
-0.00199197
-0.00277302
-0.00279077
-0.00280537
-0.00281389
-0.00281588
-0.0028105
-0.00279702
-0.00277477
-0.00274306
-0.00270119
-0.00264846
-0.00258426
-0.00250807
-0.00241958
-0.00231869
-0.00220559
-0.00208075
-0.00194484
-0.00278233
-0.00279936
-0.00281504
-0.00282589
-0.00283037
-0.00282722
-0.00281552
-0.00279442
-0.00276308
-0.00272066
-0.00266634
-0.00259942
-0.00251937
-0.00242588
-0.00231894
-0.00219885
-0.00206629
-0.00192235
-0.00278967
-0.0028068
-0.00282436
-0.00283801
-0.00284535
-0.00284485
-0.00283547
-0.00281625
-0.00278623
-0.00274443
-0.00268991
-0.00262187
-0.00253968
-0.00244302
-0.00233188
-0.0022066
-0.00206796
-0.00191733
-0.00279445
-0.00281281
-0.00283309
-0.00284995
-0.00286038
-0.00286279
-0.00285607
-0.00283921
-0.00281115
-0.0027708
-0.00271709
-0.00264908
-0.00256605
-0.00246758
-0.00235361
-0.00222449
-0.00208102
-0.00192468
-0.00279655
-0.00281741
-0.00284116
-0.00286149
-0.00287513
-0.00288055
-0.00287666
-0.00286246
-0.00283679
-0.00279847
-0.00274628
-0.00267916
-0.00259623
-0.00249697
-0.00238123
-0.00224931
-0.00210197
-0.00194072
-0.00279661
-0.00282047
-0.00284739
-0.00287062
-0.0028869
-0.00289477
-0.00289325
-0.0028813
-0.00285775
-0.00282131
-0.00277067
-0.00270462
-0.0026222
-0.00252275
-0.00240604
-0.00227233
-0.00212229
-0.00195746
0.000523172
0.000536195
0.000538794
0.000522431
0.000486572
0.000432133
0.000360182
0.000271974
0.000168894
5.23066e-05
-7.65308e-05
-0.000216546
-0.000366851
-0.000526732
-0.000695623
-0.000873052
-0.00105858
-0.00125176
-0.001452
-0.00165857
-0.0018705
-0.0020865
-0.00230494
-0.00252377
-0.00274052
-0.00295223
-0.0031555
-0.00334643
-0.00352069
-0.00367354
-0.0037999
-0.00389443
-0.00395161
-0.00396594
-0.00393201
-0.00384472
-0.00369944
-0.00349221
-0.00321991
-0.00288046
-0.00247298
-0.00199789
-0.00145707
-0.000853907
-0.000193238
0.000518822
0.00127428
0.00206417
0.00287842
0.00370599
0.00453523
0.00535415
0.00615067
0.00691288
0.00762934
0.00828927
0.00888274
0.00940086
0.00983586
0.0101811
0.0104313
0.0105824
0.0106312
0.0105764
0.0104174
0.0101548
0.00979062
0.00932823
0.00877221
0.00812858
0.00740484
0.00661007
0.00575496
0.00485179
0.00391436
0.00295783
0.00199838
0.00105283
0.000137918
-0.000728585
-0.00153238
-0.00225958
-0.00289874
-0.00344144
-0.00388264
-0.00422089
-0.00445839
-0.00460069
-0.00465632
-0.00463607
-0.00455226
-0.00441794
-0.0042461
-0.00404901
-0.00383774
-0.00362183
-0.00340916
-0.00320605
-0.00301733
-0.00284654
-0.00269604
-0.00256712
-0.00246002
-0.00237399
-0.0023074
-0.00225783
-0.00222238
-0.00219787
-0.00218112
-0.00216916
-0.00215939
-0.00214966
-0.00213833
-0.00212418
-0.00210644
-0.00208471
-0.00205891
-0.00202922
-0.00199601
-0.00195985
-0.00192137
-0.00188125
-0.00184027
-0.00179911
-0.00175844
-0.00171884
-0.0016808
-0.00164472
-0.00161087
-0.00157944
-0.00155051
-0.00152409
-0.00150011
-0.00147843
-0.00145888
-0.00144127
-0.00142535
-0.0014109
-0.00139769
-0.00138547
-0.00137405
-0.00136321
-0.00135276
-0.00134255
-0.00133243
-0.00132226
-0.00131195
-0.00130138
-0.0012905
-0.00127922
-0.00126751
-0.00125532
-0.00124262
-0.0012294
-0.00121565
-0.00120136
-0.00118652
-0.00117113
-0.00115522
-0.00113879
-0.00112185
-0.0011044
-0.00108646
-0.00106802
-0.00104906
-0.00102957
-0.0010095
-0.000988799
-0.000967395
-0.000945194
-0.000922093
-0.000897981
-0.00087273
-0.00084629
-0.000818603
-0.000789693
-0.000759674
-0.000729108
-0.000700384
-0.000661238
0.000534456
0.000547228
0.000549479
0.000533737
0.000500672
0.000451676
0.000387782
0.000309976
0.00021929
0.000116727
3.18541e-06
-0.000120556
-0.000253871
-0.000396266
-0.000547358
-0.000706833
-0.000874398
-0.00104973
-0.00123243
-0.00142191
-0.00161739
-0.00181782
-0.00202183
-0.00222766
-0.00243314
-0.00263567
-0.00283219
-0.00301914
-0.00319253
-0.0033479
-0.00348041
-0.00358489
-0.00365595
-0.00368808
-0.00367579
-0.0036138
-0.0034972
-0.00332165
-0.00308361
-0.00278047
-0.00241078
-0.00197441
-0.00147267
-0.000908341
-0.000285643
0.000389528
0.00111003
0.00186709
0.00265081
0.00345036
0.00425424
0.0050505
0.00582707
0.00657201
0.00727379
0.00792153
0.00850518
0.00901573
0.00944527
0.0097871
0.0100358
0.010187
0.0102379
0.0101864
0.0100321
0.00977584
0.00941983
0.00896741
0.00842329
0.0077936
0.00708599
0.00630971
0.0054756
0.00459609
0.00368513
0.00275792
0.00183065
0.000920142
4.33902e-05
-0.000784357
-0.00154729
-0.00223294
-0.00283096
-0.00333406
-0.00373838
-0.00404371
-0.00425339
-0.00437391
-0.00441445
-0.0043861
-0.0043011
-0.00417205
-0.00401112
-0.00382953
-0.00363716
-0.00344227
-0.00325156
-0.00307026
-0.00290229
-0.00275047
-0.00261668
-0.00250192
-0.00240635
-0.00232933
-0.00226947
-0.00222473
-0.00219263
-0.00217041
-0.00215531
-0.0021447
-0.00213625
-0.002128
-0.00211838
-0.00210622
-0.00209074
-0.00207149
-0.0020483
-0.00202127
-0.00199071
-0.00195709
-0.001921
-0.00188305
-0.00184397
-0.00180444
-0.00176511
-0.00172655
-0.00168927
-0.00165367
-0.00162007
-0.00158868
-0.00155961
-0.00153289
-0.00150849
-0.00148631
-0.00146619
-0.00144797
-0.00143142
-0.00141635
-0.00140251
-0.00138971
-0.00137772
-0.00136635
-0.00135543
-0.00134477
-0.00133425
-0.00132373
-0.00131309
-0.00130225
-0.00129113
-0.00127964
-0.00126775
-0.00125541
-0.0012426
-0.00122927
-0.00121543
-0.00120106
-0.00118617
-0.00117075
-0.00115481
-0.00113836
-0.0011214
-0.00110395
-0.00108599
-0.00106754
-0.00104857
-0.00102907
-0.001009
-0.000988306
-0.000966921
-0.000944762
-0.000921738
-0.000897752
-0.000872729
-0.000846585
-0.000819307
-0.000790961
-0.000761707
-0.000732182
-0.000704695
-0.000667273
0.000629975
0.000635585
0.000630698
0.000609915
0.000574456
0.00052584
0.000465052
0.000392899
0.000310154
0.000217518
0.000115568
4.73999e-06
-0.000114668
-0.000242485
-0.000378643
-0.000523136
-0.000675982
-0.000837168
-0.0010066
-0.00118402
-0.00136901
-0.00156084
-0.0017585
-0.00196057
-0.00216524
-0.00237021
-0.00257268
-0.00276931
-0.00295623
-0.00312904
-0.00328283
-0.00341226
-0.00351166
-0.00357511
-0.00359666
-0.00357044
-0.00349092
-0.00335312
-0.00315281
-0.00288674
-0.00255289
-0.00215062
-0.00168081
-0.00114582
-0.000549554
0.000102172
0.000801995
0.00154111
0.00230947
0.00309606
0.00388909
0.00467637
0.00544554
0.00618442
0.00688125
0.00752498
0.00810543
0.00861349
0.00904123
0.00938195
0.00963025
0.00978198
0.00983413
0.00978493
0.00963383
0.00938173
0.00903088
0.00858469
0.00804786
0.00742658
0.00672856
0.00596317
0.00514143
0.004276
0.0033811
0.00247229
0.00156612
0.000679697
-0.000169852
-0.000966237
-0.0016945
-0.00234205
-0.00289919
-0.00335945
-0.00372011
-0.00398238
-0.00415118
-0.00423465
-0.00424352
-0.00419013
-0.0040876
-0.00394883
-0.00378584
-0.00360913
-0.00342746
-0.00324774
-0.00307519
-0.0029136
-0.0027656
-0.00263296
-0.00251679
-0.00241759
-0.00233529
-0.00226923
-0.00221816
-0.00218032
-0.00215357
-0.00213552
-0.00212376
-0.00211598
-0.0021101
-0.00210435
-0.00209729
-0.00208778
-0.00207507
-0.00205866
-0.00203834
-0.00201415
-0.00198633
-0.00195528
-0.00192152
-0.00188573
-0.00184851
-0.00181054
-0.00177246
-0.00173487
-0.00169829
-0.00166313
-0.00162974
-0.00159835
-0.0015691
-0.00154208
-0.00151725
-0.00149455
-0.00147386
-0.00145502
-0.00143785
-0.00142213
-0.00140767
-0.00139426
-0.0013817
-0.00136979
-0.00135836
-0.00134725
-0.00133631
-0.00132541
-0.00131444
-0.00130331
-0.00129192
-0.00128021
-0.00126812
-0.00125562
-0.00124266
-0.00122922
-0.00121529
-0.00120084
-0.00118589
-0.00117043
-0.00115445
-0.00113797
-0.00112099
-0.00110352
-0.00108555
-0.00106708
-0.00104811
-0.0010286
-0.00100853
-0.000987849
-0.000966496
-0.000944401
-0.000921484
-0.000897667
-0.000872881
-0.000847077
-0.000820265
-0.000792539
-0.000764092
-0.000735576
-0.000709512
-0.000673077
0.000812248
0.000802664
0.000782712
0.000750877
0.000707974
0.000654951
0.000592503
0.000521215
0.000441567
0.000353909
0.000258441
0.000155205
4.40896e-05
-7.51579e-05
-0.000202906
-0.000339601
-0.000485723
-0.000641732
-0.000808005
-0.000984772
-0.00117205
-0.00136956
-0.00157666
-0.00179229
-0.00201487
-0.00224224
-0.00247162
-0.00269957
-0.00292194
-0.00313391
-0.00333
-0.00350417
-0.00364992
-0.00376043
-0.0038288
-0.00384821
-0.00381222
-0.003715
-0.00355158
-0.00331815
-0.00301227
-0.00263306
-0.00218125
-0.00165907
-0.00107083
-0.000422914
0.000276813
0.00101899
0.00179298
0.00258709
0.00338891
0.00418562
0.00496436
0.00571246
0.00641782
0.00706914
0.00765611
0.00816962
0.00860178
0.00894605
0.00919722
0.00935138
0.00940577
0.00935889
0.00921031
0.00896086
0.00861271
0.0081692
0.00763495
0.00701601
0.00632
0.00555624
0.00473585
0.00387167
0.0029783
0.00207178
0.00116937
0.000288969
-0.000551434
-0.0013345
-0.00204423
-0.00266725
-0.00319355
-0.00361666
-0.00393432
-0.00414874
-0.00426641
-0.00429755
-0.00425523
-0.00415426
-0.00400996
-0.00383701
-0.00364848
-0.00345522
-0.00326555
-0.00308534
-0.00291835
-0.00276671
-0.00263144
-0.00251287
-0.00241097
-0.00232543
-0.00225568
-0.00220078
-0.00215939
-0.00212983
-0.00211008
-0.00209795
-0.00209122
-0.0020878
-0.00208578
-0.00208353
-0.00207971
-0.00207328
-0.00206349
-0.00204985
-0.00203215
-0.00201039
-0.00198481
-0.00195578
-0.00192381
-0.00188953
-0.00185359
-0.00181666
-0.00177939
-0.00174239
-0.00170619
-0.00167125
-0.0016379
-0.00160643
-0.00157699
-0.00154967
-0.00152448
-0.00150136
-0.00148021
-0.00146088
-0.00144321
-0.00142699
-0.00141204
-0.00139816
-0.00138514
-0.0013728
-0.00136097
-0.00134948
-0.0013382
-0.00132699
-0.00131574
-0.00130435
-0.00129274
-0.00128084
-0.00126859
-0.00125593
-0.00124285
-0.0012293
-0.00121528
-0.00120076
-0.00118575
-0.00117023
-0.00115422
-0.00113771
-0.0011207
-0.00110321
-0.00108522
-0.00106675
-0.00104777
-0.00102826
-0.0010082
-0.000987542
-0.000966238
-0.000944221
-0.000921426
-0.000897784
-0.000873239
-0.000847763
-0.000821379
-0.000794198
-0.000766416
-0.000738653
-0.000713327
-0.000678157
0.00105897
0.00102815
0.00098694
0.000939342
0.000885254
0.00082449
0.000757201
0.000683511
0.000603411
0.000516747
0.000423209
0.000322326
0.00021346
9.58187e-05
-3.15199e-05
-0.000169573
-0.000319401
-0.000482047
-0.000658459
-0.000849413
-0.00105542
-0.00127661
-0.00151268
-0.00176272
-0.00202518
-0.00229776
-0.00257732
-0.00285986
-0.00314047
-0.0034134
-0.00367211
-0.00390935
-0.00411737
-0.00428814
-0.00441351
-0.00448558
-0.00449694
-0.00444096
-0.0043121
-0.00410619
-0.00382066
-0.00345462
-0.00300887
-0.00248633
-0.00189223
-0.0012335
-0.000518808
0.00024162
0.00103623
0.00185244
0.00267698
0.00349625
0.00429668
0.00506506
0.00578886
0.00645652
0.00705761
0.00758305
0.00802511
0.00837751
0.00863536
0.00879506
0.00885422
0.00881153
0.00866675
0.00842075
0.00807563
0.00763464
0.00710214
0.00648391
0.00578732
0.0050215
0.00419746
0.00332816
0.00242845
0.00151493
0.000605607
-0.000280575
-0.00112439
-0.00190711
-0.00261126
-0.00322173
-0.003727
-0.00411978
-0.00439738
-0.00456222
-0.00462184
-0.00458839
-0.00447761
-0.00430755
-0.00409698
-0.0038638
-0.00362372
-0.0033893
-0.00316951
-0.00296986
-0.00279293
-0.00263911
-0.0025075
-0.00239655
-0.0023046
-0.0022301
-0.00217156
-0.00212746
-0.00209612
-0.00207568
-0.00206408
-0.00205915
-0.00205875
-0.00206088
-0.00206375
-0.00206583
-0.00206587
-0.00206288
-0.00205615
-0.00204525
-0.00202995
-0.00201029
-0.0019865
-0.00195898
-0.00192824
-0.00189494
-0.00185974
-0.00182335
-0.00178644
-0.00174964
-0.00171351
-0.00167852
-0.00164505
-0.00161337
-0.00158367
-0.00155603
-0.00153049
-0.00150701
-0.00148547
-0.00146575
-0.00144767
-0.00143107
-0.00141573
-0.00140147
-0.0013881
-0.00137542
-0.00136327
-0.00135149
-0.00133994
-0.00132847
-0.00131699
-0.0013054
-0.0012936
-0.00128153
-0.00126912
-0.00125634
-0.00124314
-0.0012295
-0.00121539
-0.0012008
-0.00118572
-0.00117016
-0.0011541
-0.00113755
-0.00112052
-0.001103
-0.001085
-0.00106652
-0.00104753
-0.00102803
-0.00100799
-0.000987371
-0.000966128
-0.000944205
-0.000921545
-0.00089809
-0.000873793
-0.000848638
-0.000822654
-0.000795956
-0.000768732
-0.000741535
-0.000716433
-0.00068302
0.00134403
0.00128854
0.00122264
0.00115662
0.0010892
0.00101867
0.000944283
0.000865454
0.000781479
0.000691513
0.00059458
0.000489553
0.000375149
0.000249929
0.000112318
-3.93556e-05
-0.000206798
-0.000391677
-0.000595521
-0.000819608
-0.00106484
-0.00133162
-0.0016197
-0.00192806
-0.00225477
-0.00259693
-0.00295055
-0.00331058
-0.00367085
-0.00402422
-0.00436264
-0.0046774
-0.00495926
-0.0051988
-0.00538669
-0.00551399
-0.00557248
-0.00555498
-0.00545563
-0.00527019
-0.00499617
-0.004633
-0.00418213
-0.00364743
-0.00303493
-0.00235244
-0.00160964
-0.000817826
1.03697e-05
0.000861297
0.00172068
0.00257398
0.00340683
0.00420536
0.00495656
0.00564858
0.00627088
0.00681445
0.00727179
0.00763697
0.0079055
0.00807425
0.00814125
0.00810548
0.00796697
0.00772669
0.00738655
0.00694965
0.00642007
0.00580317
0.00510594
0.00433715
0.00350758
0.00263014
0.00171986
0.000793777
-0.000129335
-0.00102947
-0.00188604
-0.00267866
-0.00338812
-0.00399714
-0.00449205
-0.0048636
-0.00510775
-0.00522618
-0.00522654
-0.00512217
-0.00493119
-0.00467506
-0.00437673
-0.00405858
-0.00374053
-0.0034385
-0.00316368
-0.00292236
-0.00271665
-0.00254547
-0.00240583
-0.00229392
-0.00220596
-0.00213857
-0.00208888
-0.00205439
-0.00203271
-0.00202155
-0.00201861
-0.00202161
-0.00202834
-0.00203681
-0.00204527
-0.00205224
-0.00205652
-0.00205719
-0.00205359
-0.00204529
-0.00203215
-0.00201422
-0.00199177
-0.00196523
-0.00193519
-0.00190231
-0.00186733
-0.00183099
-0.00179399
-0.00175701
-0.00172063
-0.00168534
-0.00165153
-0.0016195
-0.00158944
-0.00156145
-0.00153556
-0.00151172
-0.00148984
-0.00146979
-0.0014514
-0.00143448
-0.00141885
-0.0014043
-0.00139065
-0.00137772
-0.00136532
-0.00135331
-0.00134153
-0.00132987
-0.0013182
-0.00130643
-0.00129448
-0.00128226
-0.00126973
-0.00125683
-0.00124353
-0.00122979
-0.0012156
-0.00120094
-0.00118581
-0.00117019
-0.00115408
-0.0011375
-0.00112043
-0.00110289
-0.00108488
-0.00106638
-0.00104739
-0.0010279
-0.00100789
-0.000987317
-0.000966147
-0.000944333
-0.000921823
-0.000898567
-0.000874528
-0.000849693
-0.000824094
-0.000797841
-0.000771105
-0.000744359
-0.000719206
-0.000687887
0.00163691
0.00155548
0.00146376
0.0013786
0.00129716
0.00121586
0.00113277
0.00104636
0.000955009
0.000856995
0.000750515
0.00063366
0.000504394
0.000360545
0.00019983
1.98934e-05
-0.000181611
-0.000406921
-0.000658034
-0.000936562
-0.00124356
-0.00157937
-0.00194343
-0.00233416
-0.00274879
-0.00318331
-0.00363242
-0.00408955
-0.00454691
-0.00499567
-0.00542613
-0.00582795
-0.00619049
-0.00650304
-0.00675523
-0.00693733
-0.00704054
-0.00705739
-0.00698195
-0.00681006
-0.00653955
-0.00617039
-0.00570499
-0.00514809
-0.00450649
-0.00378905
-0.00300659
-0.00217159
-0.00129793
-0.000400454
0.000505395
0.00140402
0.00228009
0.00311898
0.00390708
0.00463218
0.00528359
0.00585238
0.0063313
0.00671482
0.00699896
0.00718112
0.00725986
0.00723462
0.00710567
0.00687404
0.00654163
0.00611128
0.0055867
0.00497281
0.00427609
0.00350484
0.00266951
0.00178284
0.000859939
-8.17894e-05
-0.0010229
-0.00194238
-0.00281825
-0.00362846
-0.0043518
-0.00496895
-0.0054637
-0.00582412
-0.00604398
-0.00612331
-0.0060688
-0.00589393
-0.00561828
-0.0052662
-0.00486485
-0.00444173
-0.0040222
-0.00362721
-0.00327188
-0.00296493
-0.00270916
-0.00250273
-0.00234077
-0.00221703
-0.00212513
-0.00205934
-0.00201486
-0.00198769
-0.0019744
-0.00197192
-0.00197749
-0.00198853
-0.00200267
-0.0020178
-0.00203215
-0.00204423
-0.00205289
-0.00205721
-0.00205658
-0.00205063
-0.00203926
-0.00202259
-0.00200094
-0.00197482
-0.00194488
-0.00191186
-0.00187655
-0.00183974
-0.0018022
-0.00176464
-0.00172767
-0.00169181
-0.00165746
-0.00162493
-0.00159441
-0.00156601
-0.00153975
-0.00151557
-0.0014934
-0.00147307
-0.00145442
-0.00143727
-0.00142142
-0.00140667
-0.00139282
-0.0013797
-0.00136712
-0.00135494
-0.001343
-0.00133118
-0.00131937
-0.00130746
-0.00129538
-0.00128304
-0.0012704
-0.0012574
-0.001244
-0.00123018
-0.00121591
-0.00120119
-0.00118599
-0.00117032
-0.00115417
-0.00113754
-0.00112044
-0.00110288
-0.00108484
-0.00106633
-0.00104734
-0.00102787
-0.00100789
-0.000987372
-0.000966287
-0.000944593
-0.000922246
-0.000899202
-0.000875428
-0.000850914
-0.000825688
-0.000799848
-0.000773548
-0.000747168
-0.000721813
-0.00069275
0.00190373
0.00179723
0.00168064
0.0015771
0.00148197
0.00138954
0.00129646
0.00120004
0.00109754
0.000986224
0.000863326
0.000726059
0.000571562
0.000396896
0.000199063
-2.49319e-05
-0.000277979
-0.000562729
-0.000881429
-0.00123573
-0.00162649
-0.00205356
-0.00251565
-0.00301012
-0.00353293
-0.00407854
-0.00464
-0.00520894
-0.00577582
-0.00633005
-0.0068603
-0.00735477
-0.00780153
-0.00818886
-0.00850555
-0.00874127
-0.00888688
-0.00893474
-0.00887892
-0.00871546
-0.00844254
-0.00806095
-0.00757376
-0.00698643
-0.00630671
-0.00554457
-0.00471203
-0.00382289
-0.00289236
-0.00193664
-0.000972514
-1.68245e-05
0.000913981
0.00180432
0.00263986
0.00340789
0.00409751
0.00469979
0.00520774
0.00561627
0.00592196
0.00612282
0.00621802
0.00620756
0.00609202
0.00587262
0.0055512
0.00513032
0.00461334
0.00400468
0.00331026
0.00253787
0.00169754
0.000801776
-0.000134297
-0.00109298
-0.00205422
-0.00299604
-0.00389519
-0.00472795
-0.00547117
-0.00610335
-0.00660586
-0.00696416
-0.00716906
-0.00721826
-0.00711667
-0.00687682
-0.00651858
-0.00606818
-0.00555629
-0.00501545
-0.00447698
-0.00396808
-0.00350941
-0.00311382
-0.00278643
-0.00252572
-0.00232559
-0.00217744
-0.00207207
-0.00200096
-0.00195681
-0.00193366
-0.00192656
-0.00193138
-0.00194461
-0.00196319
-0.00198444
-0.00200607
-0.00202618
-0.00204324
-0.00205606
-0.00206376
-0.00206574
-0.0020617
-0.00205158
-0.00203559
-0.00201413
-0.0019878
-0.00195734
-0.00192358
-0.00188737
-0.00184959
-0.00181107
-0.00177254
-0.00173466
-0.00169797
-0.00166289
-0.00162972
-0.00159865
-0.00156979
-0.00154314
-0.00151865
-0.0014962
-0.00147565
-0.00145682
-0.0014395
-0.0014235
-0.00140861
-0.00139464
-0.0013814
-0.00136871
-0.00135641
-0.00134436
-0.00133243
-0.00132051
-0.0013085
-0.00129631
-0.00128387
-0.00127114
-0.00125805
-0.00124457
-0.00123067
-0.00121633
-0.00120154
-0.00118628
-0.00117055
-0.00115435
-0.00113768
-0.00112055
-0.00110295
-0.00108489
-0.00106637
-0.00104739
-0.00102793
-0.00100798
-0.000987529
-0.000966538
-0.000944975
-0.0009228
-0.000899977
-0.000876473
-0.000852277
-0.000827411
-0.000801953
-0.00077604
-0.00074996
-0.000724315
-0.000697524
0.00210954
0.00198062
0.00184186
0.00172185
0.00161402
0.00151043
0.00140613
0.00129712
0.00117944
0.00104921
0.000902641
0.000736019
0.00054564
0.000327813
7.88929e-05
-0.000204639
-0.000526041
-0.00088814
-0.00129313
-0.00174234
-0.00223604
-0.00277319
-0.00335133
-0.00396641
-0.00461276
-0.00528313
-0.00596871
-0.00665936
-0.00734376
-0.00800973
-0.00864448
-0.00923496
-0.00976818
-0.0102316
-0.0106132
-0.0109024
-0.0110896
-0.011167
-0.0111287
-0.0109708
-0.0106919
-0.0102934
-0.00977883
-0.00915443
-0.00842889
-0.00761332
-0.006721
-0.00576712
-0.00476838
-0.00374251
-0.0027078
-0.00168258
-0.000684615
0.000269336
0.00116403
0.00198608
0.00272423
0.00336948
0.00391507
0.00435634
0.00469046
0.00491613
0.00503321
0.00504233
0.00494453
0.00474128
0.00443442
0.0040262
0.00351967
0.00291874
0.00222874
0.00145692
0.000612892
-0.000291104
-0.00123996
-0.00221571
-0.00319772
-0.00416313
-0.00508743
-0.00594536
-0.00671192
-0.00736349
-0.00787903
-0.00824178
-0.00843941
-0.0084669
-0.00832688
-0.00803011
-0.00759573
-0.00705064
-0.00642793
-0.00576436
-0.00509706
-0.00445991
-0.00388026
-0.00337664
-0.00295807
-0.00262483
-0.00237052
-0.00218472
-0.00205544
-0.00197107
-0.00192143
-0.00189807
-0.00189417
-0.00190417
-0.00192352
-0.00194853
-0.00197606
-0.00200352
-0.00202883
-0.00205034
-0.00206681
-0.00207734
-0.00208135
-0.00207859
-0.00206908
-0.0020531
-0.00203116
-0.00200396
-0.00197235
-0.00193725
-0.00189962
-0.0018604
-0.00182047
-0.00178064
-0.00174157
-0.00170383
-0.00166785
-0.00163392
-0.00160224
-0.00157288
-0.00154584
-0.00152105
-0.00149838
-0.00147765
-0.00145869
-0.00144127
-0.0014252
-0.00141024
-0.0013962
-0.0013829
-0.00137015
-0.00135778
-0.00134566
-0.00133366
-0.00132166
-0.00130957
-0.0012973
-0.00128478
-0.00127196
-0.00125879
-0.00124524
-0.00123126
-0.00121685
-0.00120199
-0.00118667
-0.00117089
-0.00115463
-0.00113792
-0.00112074
-0.00110311
-0.00108503
-0.0010665
-0.00104751
-0.00102807
-0.00100817
-0.00098778
-0.000966888
-0.000945461
-0.000923465
-0.000900865
-0.000877631
-0.000853746
-0.000829222
-0.000804116
-0.000778545
-0.00075271
-0.00072673
-0.000702101
0.00222097
0.00207389
0.00191706
0.00178335
0.00166424
0.00154957
0.00143281
0.00130856
0.00117158
0.00101684
0.000839521
0.000634973
0.000398697
0.000126329
-0.000186304
-0.00054307
-0.000947368
-0.00140192
-0.00190855
-0.00246793
-0.00307936
-0.00374061
-0.00444774
-0.00519509
-0.00597524
-0.00677912
-0.00759617
-0.00841454
-0.00922136
-0.010003
-0.0107455
-0.0114347
-0.0120567
-0.0125981
-0.0130465
-0.0133905
-0.0136203
-0.0137278
-0.0137068
-0.0135535
-0.0132669
-0.0128486
-0.0123025
-0.0116356
-0.0108576
-0.00998061
-0.00901934
-0.00799045
-0.00691225
-0.00580418
-0.00468626
-0.0035785
-0.00250025
-0.00146968
-0.000503195
0.00038496
0.00118299
0.00188171
0.00247447
0.00295705
0.00332723
0.00358448
0.00372941
0.00376336
0.00368799
0.00350502
0.00321637
0.00282415
0.00233101
0.00174038
0.00105705
0.000287739
-0.000558394
-0.00146934
-0.00243001
-0.00342216
-0.0044246
-0.00541357
-0.00636341
-0.00724738
-0.00803871
-0.00871181
-0.0092434
-0.00961447
-0.00981026
-0.00982272
-0.00965203
-0.00930683
-0.00880475
-0.00817235
-0.00744393
-0.00665937
-0.00586077
-0.00508844
-0.00437684
-0.00375124
-0.00322596
-0.00280451
-0.00248143
-0.00224523
-0.00208151
-0.00197555
-0.00191399
-0.00188559
-0.00188123
-0.0018937
-0.00191705
-0.00194683
-0.00197931
-0.00201149
-0.00204103
-0.00206612
-0.00208542
-0.00209799
-0.00210326
-0.00210102
-0.00209137
-0.00207467
-0.00205155
-0.00202283
-0.00198947
-0.00195249
-0.00191296
-0.00187188
-0.00183021
-0.00178878
-0.00174831
-0.00170936
-0.00167237
-0.00163761
-0.00160527
-0.00157541
-0.001548
-0.00152294
-0.00150008
-0.00147924
-0.0014602
-0.00144275
-0.00142664
-0.00141167
-0.00139763
-0.00138431
-0.00137153
-0.00135914
-0.00134698
-0.00133493
-0.00132288
-0.00131072
-0.00129839
-0.0012858
-0.00127291
-0.00125966
-0.00124603
-0.00123198
-0.0012175
-0.00120257
-0.00118718
-0.00117133
-0.00115502
-0.00113825
-0.00112103
-0.00110337
-0.00108525
-0.00106671
-0.00104772
-0.0010283
-0.00100843
-0.000988113
-0.000967321
-0.000946032
-0.000924215
-0.000901836
-0.000878863
-0.000855276
-0.000831072
-0.000806285
-0.000781008
-0.000755378
-0.00072905
-0.000706368
0.00220967
0.00204995
0.00188028
0.00173622
0.00160748
0.00148195
0.00135155
0.00120954
0.00104945
0.000865126
0.000650763
0.000400868
0.000110227
-0.000226075
-0.00061258
-0.00105331
-0.00155155
-0.00210969
-0.00272887
-0.00340885
-0.00414774
-0.00494188
-0.00578578
-0.00667208
-0.00759165
-0.00853373
-0.00948615
-0.0104356
-0.0113678
-0.0122679
-0.0131209
-0.0139116
-0.0146252
-0.0152476
-0.0157656
-0.0161671
-0.0164419
-0.0165814
-0.016579
-0.0164307
-0.0161358
-0.0156958
-0.0151151
-0.0144013
-0.013565
-0.0126195
-0.0115809
-0.0104674
-0.00929904
-0.0080971
-0.00688355
-0.00568029
-0.00450852
-0.00338805
-0.00233673
-0.00136989
-0.000500074
0.000263164
0.000913219
0.00144621
0.00186056
0.00215651
0.00233555
0.00239981
0.00235162
0.00219314
0.00192644
0.00155354
0.00107671
0.000498992
-0.000175366
-0.00094015
-0.0017866
-0.00270292
-0.00367401
-0.00468134
-0.00570314
-0.0067148
-0.00768949
-0.00859907
-0.00941514
-0.0101102
-0.010659
-0.0110403
-0.0112375
-0.0112396
-0.0110444
-0.0106583
-0.0100973
-0.00938665
-0.00856102
-0.00766217
-0.00673604
-0.00582857
-0.00498108
-0.00422596
-0.00358377
-0.00306248
-0.0026588
-0.00236116
-0.00215333
-0.00201772
-0.00193778
-0.00189924
-0.00189045
-0.00190211
-0.00192697
-0.00195947
-0.00199516
-0.00203058
-0.00206305
-0.00209056
-0.00211163
-0.00212526
-0.00213088
-0.0021283
-0.0021177
-0.00209954
-0.00207456
-0.00204371
-0.00200806
-0.00196874
-0.00192691
-0.00188366
-0.00184
-0.00179679
-0.00175478
-0.00171453
-0.00167647
-0.00164087
-0.00160788
-0.00157754
-0.00154979
-0.00152451
-0.00150152
-0.00148061
-0.00146155
-0.0014441