/*--------------------------------*- C++ -*----------------------------------*\
  =========                 |
  \\      /  F ield         | OpenFOAM: The Open Source CFD Toolbox
   \\    /   O peration     | Website:  https://openfoam.org
    \\  /    A nd           | Version:  8
     \\/     M anipulation  |
\*---------------------------------------------------------------------------*/
FoamFile
{
    version     2.0;
    format      ascii;
    class       surfaceScalarField;
    location    "0.78";
    object      phi;
}
// * * * * * * * * * * * * * * * * * * * * * * * * * * * * * * * * * * * * * //

dimensions      [0 3 -1 0 0 0 0];

internalField   nonuniform List<scalar> 
24170
(
-2.42215e-12
2.42215e-12
4.61651e-12
-7.03866e-12
2.0024e-11
-1.54074e-11
4.20756e-11
-2.20517e-11
6.9511e-11
-2.74354e-11
1.01561e-10
-3.205e-11
1.3773e-10
-3.61686e-11
1.77692e-10
-3.99625e-11
2.21259e-10
-4.35672e-11
2.68403e-10
-4.71432e-11
3.19309e-10
-5.09065e-11
3.74435e-10
-5.51259e-11
4.34459e-10
-6.00244e-11
4.99697e-10
-6.52373e-11
5.66473e-10
-6.67763e-11
6.0674e-10
-4.02672e-11
5.22449e-10
8.42909e-11
1.47859e-09
-9.56145e-10
-2.47884e-12
4.90099e-12
2.14074e-11
-3.09249e-11
7.07303e-11
-6.47303e-11
1.40411e-10
-9.17328e-11
2.26773e-10
-1.13797e-10
3.27332e-10
-1.32609e-10
4.40374e-10
-1.4921e-10
5.64614e-10
-1.64203e-10
6.99053e-10
-1.78006e-10
8.42927e-10
-1.91017e-10
9.9564e-10
-2.0362e-10
1.15643e-09
-2.15913e-10
1.32312e-09
-2.26721e-10
1.4881e-09
-2.30213e-10
1.62463e-09
-2.03307e-10
1.64211e-09
-5.77427e-11
1.20244e-09
5.23957e-10
3.29481e-09
-6.13776e-10
1.90953e-12
2.99146e-12
4.74647e-11
-7.64801e-11
1.36313e-10
-1.53578e-10
2.60334e-10
-2.15754e-10
4.13361e-10
-2.66824e-10
5.90942e-10
-3.1019e-10
7.89793e-10
-3.48061e-10
1.00721e-09
-3.81623e-10
1.24075e-09
-4.11546e-10
1.48796e-09
-4.38221e-10
1.74588e-09
-4.61547e-10
2.00986e-09
-4.79892e-10
2.27011e-09
-4.86972e-10
2.50286e-09
-4.62955e-10
2.64686e-09
-3.47306e-10
2.54376e-09
4.53485e-11
1.78274e-09
1.28498e-09
5.17943e-09
-1.01877e-10
1.0601e-11
-7.60949e-12
8.3535e-11
-1.49414e-10
2.17994e-10
-2.88037e-10
4.03249e-10
-4.01009e-10
6.30579e-10
-4.94154e-10
8.93322e-10
-5.72933e-10
1.18622e-09
-6.40955e-10
1.50457e-09
-6.99975e-10
1.84367e-09
-7.50647e-10
2.19816e-09
-7.92709e-10
2.56089e-09
-8.24278e-10
2.9204e-09
-8.39402e-10
3.25508e-09
-8.21649e-10
3.52011e-09
-7.27991e-10
3.61966e-09
-4.46857e-10
3.35661e-09
3.08404e-10
2.37828e-09
2.26331e-09
7.02962e-09
5.28089e-10
2.37112e-11
-3.13207e-11
1.30102e-10
-2.55804e-10
3.16537e-10
-4.74473e-10
5.69835e-10
-6.54307e-10
8.78668e-10
-8.02986e-10
1.23392e-09
-9.28181e-10
1.62788e-09
-1.03492e-09
2.05321e-09
-1.1253e-09
2.50198e-09
-1.19942e-09
2.96458e-09
-1.25531e-09
3.42775e-09
-1.28745e-09
3.87074e-09
-1.2824e-09
4.25755e-09
-1.20846e-09
4.52224e-09
-9.92673e-10
4.54457e-09
-4.69191e-10
4.12503e-09
7.27943e-10
3.01841e-09
3.36993e-09
8.76941e-09
1.27862e-09
4.10778e-11
-7.23984e-11
1.87177e-10
-4.01904e-10
4.31921e-10
-7.19218e-10
7.59624e-10
-9.8201e-10
1.15628e-09
-1.19964e-09
1.61005e-09
-1.38195e-09
2.11031e-09
-1.53518e-09
2.64633e-09
-1.66132e-09
3.20598e-09
-1.75907e-09
3.77405e-09
-1.82338e-09
4.32956e-09
-1.84296e-09
4.84091e-09
-1.79374e-09
5.25744e-09
-1.62499e-09
5.49639e-09
-1.23163e-09
5.42827e-09
-4.01068e-10
4.88007e-09
1.27614e-09
3.72034e-09
4.52967e-09
1.03553e-08
2.13442e-09
6.23436e-11
-1.34742e-10
2.5415e-10
-5.9371e-10
5.63067e-10
-1.02813e-09
9.70608e-10
-1.38955e-09
1.45997e-09
-1.689e-09
2.01634e-09
-1.93832e-09
2.62569e-09
-2.14452e-09
3.27319e-09
-2.30883e-09
3.94158e-09
-2.42745e-09
4.60896e-09
-2.49076e-09
5.24559e-09
-2.4796e-09
5.8088e-09
-2.35695e-09
6.23545e-09
-2.05164e-09
6.43335e-09
-1.42954e-09
6.27904e-09
-2.46756e-10
5.64371e-09
1.91147e-09
4.49529e-09
5.67808e-09
1.17602e-08
3.09046e-09
8.68872e-11
-2.21629e-10
3.29622e-10
-8.36445e-10
7.07525e-10
-1.40604e-09
1.19878e-09
-1.88081e-09
1.78363e-09
-2.27384e-09
2.44403e-09
-2.59873e-09
3.16215e-09
-2.86264e-09
3.91846e-09
-3.06514e-09
4.68982e-09
-3.19882e-09
5.44702e-09
-3.24796e-09
6.15145e-09
-3.18403e-09
6.7506e-09
-2.9561e-09
7.17301e-09
-2.47404e-09
7.32578e-09
-1.58231e-09
7.10395e-09
-2.49226e-11
6.4298e-09
2.58561e-09
5.34804e-09
6.75984e-09
1.29648e-08
4.14338e-09
1.13784e-10
-3.35414e-10
4.11246e-10
-1.13391e-09
8.61151e-10
-1.85594e-09
1.43767e-09
-2.45733e-09
2.11788e-09
-2.95405e-09
2.88036e-09
-3.36121e-09
3.70313e-09
-3.68541e-09
4.56161e-09
-3.92363e-09
5.42647e-09
-4.06368e-09
6.26119e-09
-4.08267e-09
7.01916e-09
-3.942e-09
7.6407e-09
-3.57764e-09
8.05137e-09
-2.88471e-09
8.16589e-09
-1.69683e-09
7.90591e-09
2.35054e-10
7.2433e-09
3.24822e-09
6.27575e-09
7.7274e-09
1.39531e-08
5.28751e-09
1.41765e-10
-4.77178e-10
4.95583e-10
-1.48773e-09
1.0178e-09
-2.37816e-09
1.67787e-09
-3.1174e-09
2.44951e-09
-3.72569e-09
3.30785e-09
-4.21954e-09
4.22672e-09
-4.60428e-09
5.17644e-09
-4.87335e-09
6.12171e-09
-5.00894e-09
7.01945e-09
-4.98042e-09
7.81699e-09
-4.73954e-09
8.45107e-09
-4.21172e-09
8.84997e-09
-3.28361e-09
8.94262e-09
-1.78949e-09
8.68079e-09
4.96885e-10
8.07898e-09
3.85004e-09
7.26696e-09
8.53942e-09
1.47083e-08
6.51171e-09
1.69345e-10
-6.46524e-10
5.78e-10
-1.89638e-09
1.16906e-09
-2.96922e-09
1.90662e-09
-3.85496e-09
2.76096e-09
-4.58002e-09
3.70383e-09
-5.16242e-09
4.70516e-09
-5.6056e-09
5.73061e-09
-5.8988e-09
6.7397e-09
-6.01804e-09
7.68445e-09
-5.92516e-09
8.50876e-09
-5.56385e-09
9.14993e-09
-4.85288e-09
9.544e-09
-3.67769e-09
9.63836e-09
-1.88384e-09
9.41436e-09
7.20889e-10
8.91964e-09
4.34475e-09
8.29964e-09
9.15942e-09
1.52121e-08
7.79583e-09
1.63139e-10
-8.09663e-10
5.45932e-10
-2.27917e-09
1.09192e-09
-3.5152e-09
1.76599e-09
-4.52904e-09
2.54033e-09
-5.35437e-09
3.38887e-09
-6.01095e-09
4.28364e-09
-6.50037e-09
5.19279e-09
-6.80795e-09
6.07933e-09
-6.90458e-09
6.90061e-09
-6.74644e-09
7.60911e-09
-6.27235e-09
8.15532e-09
-5.39909e-09
8.49416e-09
-4.01653e-09
8.59667e-09
-1.98634e-09
8.46734e-09
8.50218e-10
8.16434e-09
4.64775e-09
7.81322e-09
9.51054e-09
1.54282e-08
7.59709e-09
2.04766e-10
-1.01443e-09
6.79707e-10
-2.75411e-09
1.3475e-09
-4.183e-09
2.16375e-09
-5.34529e-09
3.09417e-09
-6.28478e-09
4.10684e-09
-7.02363e-09
5.1677e-09
-7.56123e-09
6.23818e-09
-7.87843e-09
7.27426e-09
-7.94067e-09
8.22687e-09
-7.69905e-09
9.04401e-09
-7.08949e-09
9.67563e-09
-6.03071e-09
1.00823e-08
-4.42318e-09
1.02481e-08
-2.1522e-09
1.01975e-08
9.00879e-10
1.00101e-08
4.8351e-09
9.82672e-09
9.69394e-09
1.54244e-08
9.83055e-09
2.47745e-10
-1.26217e-09
8.17566e-10
-3.32394e-09
1.60803e-09
-4.97346e-09
2.56417e-09
-6.30143e-09
3.64515e-09
-7.36576e-09
4.81347e-09
-8.19194e-09
6.02948e-09
-8.77724e-09
7.24894e-09
-9.0979e-09
8.42262e-09
-9.11434e-09
9.49777e-09
-8.7742e-09
1.04221e-08
-8.0138e-09
1.11504e-08
-6.75901e-09
1.16547e-08
-4.92753e-09
1.19374e-08
-2.43482e-09
1.20442e-08
7.94068e-10
1.20739e-08
4.8054e-09
1.21752e-08
9.59258e-09
1.50743e-08
1.25253e-08
2.8237e-10
-1.54454e-09
9.2688e-10
-3.96845e-09
1.81044e-09
-5.85702e-09
2.86825e-09
-7.35925e-09
4.05461e-09
-8.55212e-09
5.32853e-09
-9.46586e-09
6.64755e-09
-1.00963e-08
7.96533e-09
-1.04157e-08
9.23193e-09
-1.03809e-08
1.03967e-08
-9.93899e-09
1.14137e-08
-9.03073e-09
1.22493e-08
-7.59465e-09
1.2893e-08
-5.57119e-09
1.33677e-08
-2.90955e-09
1.37393e-08
4.22427e-10
1.41192e-08
4.42555e-09
1.46555e-08
9.05625e-09
1.42177e-08
1.55121e-08
2.88926e-10
-1.83347e-09
9.432e-10
-4.62272e-09
1.83087e-09
-6.74469e-09
2.88366e-09
-8.41203e-09
4.05637e-09
-9.72483e-09
5.31021e-09
-1.07197e-08
6.6063e-09
-1.13924e-08
7.90359e-09
-1.1713e-08
9.15992e-09
-1.16373e-08
1.03357e-08
-1.11148e-08
1.14001e-08
-1.00951e-08
1.23384e-08
-8.53296e-09
1.31612e-08
-6.39401e-09
1.39118e-08
-3.66013e-09
1.46702e-08
-3.36016e-10
1.55512e-08
3.54452e-09
1.66933e-08
7.91419e-09
1.26712e-08
1.82398e-08
2.33563e-10
-2.06703e-09
7.56269e-10
-5.14543e-09
1.45795e-09
-7.44637e-09
2.28356e-09
-9.23765e-09
3.20021e-09
-1.06415e-08
4.18221e-09
-1.17017e-08
5.20563e-09
-1.24158e-08
6.24689e-09
-1.27542e-08
7.28421e-09
-1.26746e-08
8.30117e-09
-1.21318e-08
9.292e-09
-1.10859e-08
1.02676e-08
-9.50855e-09
1.12613e-08
-7.38769e-09
1.23325e-08
-4.7314e-09
1.35673e-08
-1.5708e-09
1.50732e-08
2.03859e-09
1.69697e-08
6.01773e-09
1.0268e-08
1.93729e-08
6.66295e-11
-2.13366e-09
2.06737e-10
-5.28553e-09
3.87658e-10
-7.62729e-09
5.98066e-10
-9.44806e-09
8.36876e-10
-1.08803e-08
1.10794e-09
-1.19728e-08
1.41826e-09
-1.27261e-08
1.7779e-09
-1.31139e-08
2.20118e-09
-1.30979e-08
2.70899e-09
-1.26396e-08
3.33162e-09
-1.17085e-08
4.11176e-09
-1.02887e-08
5.10659e-09
-8.38252e-09
6.38804e-09
-6.01285e-09
8.04055e-09
-3.2233e-09
1.0156e-08
-7.68209e-11
1.28259e-08
3.34781e-09
6.96028e-09
1.61336e-08
-2.6463e-10
-1.86903e-09
-8.64632e-10
-4.68553e-09
-1.68006e-09
-6.81185e-09
-2.64105e-09
-8.48707e-09
-3.69459e-09
-9.82675e-09
-4.79004e-09
-1.08773e-08
-5.87332e-09
-1.16428e-08
-6.88469e-09
-1.21025e-08
-7.75799e-09
-1.22246e-08
-8.42071e-09
-1.19768e-08
-8.79454e-09
-1.13347e-08
-8.7964e-09
-1.02868e-08
-8.34017e-09
-8.83875e-09
-7.33925e-09
-7.01377e-09
-5.71012e-09
-4.85243e-09
-3.37696e-09
-2.40998e-09
-2.76903e-10
2.47749e-10
3.04517e-09
3.6382e-09
-3.83445e-10
-1.48559e-09
-1.25197e-09
-3.81701e-09
-2.43647e-09
-5.62736e-09
-3.84613e-09
-7.07741e-09
-5.41806e-09
-8.25482e-09
-7.09571e-09
-9.19968e-09
-8.82016e-09
-9.91836e-09
-1.05268e-08
-1.03958e-08
-1.21451e-08
-1.06063e-08
-1.35993e-08
-1.05226e-08
-1.48112e-08
-1.01228e-08
-1.57024e-08
-9.3956e-09
-1.61978e-08
-8.34337e-09
-1.62282e-08
-6.98335e-09
-1.57337e-08
-5.34698e-09
-1.46658e-08
-3.47784e-09
-1.29894e-08
-1.42871e-09
7.41891e-10
-1.06861e-08
-4.09178e-10
-1.07641e-09
-1.34214e-09
-2.88405e-09
-2.62708e-09
-4.34241e-09
-4.17421e-09
-5.53027e-09
-5.92216e-09
-6.50687e-09
-7.81641e-09
-7.30542e-09
-9.80049e-09
-7.93429e-09
-1.18123e-08
-8.38402e-09
-1.37834e-08
-8.63518e-09
-1.56405e-08
-8.66555e-09
-1.73073e-08
-8.456e-09
-1.8708e-08
-7.99489e-09
-1.97704e-08
-7.28095e-09
-2.04293e-08
-6.32445e-09
-2.06293e-08
-5.14697e-09
-2.03272e-08
-3.77994e-09
-1.94935e-08
-2.26244e-09
-6.38729e-10
-1.81129e-08
-3.63708e-10
-7.12704e-10
-1.20756e-09
-2.0402e-09
-2.38894e-09
-3.16104e-09
-3.83274e-09
-4.08647e-09
-5.48637e-09
-4.85324e-09
-7.30312e-09
-5.48867e-09
-9.23488e-09
-6.00252e-09
-1.12288e-08
-6.39011e-09
-1.32262e-08
-6.63778e-09
-1.51634e-08
-6.72838e-09
-1.69734e-08
-6.646e-09
-1.85887e-08
-6.37958e-09
-1.99443e-08
-5.92533e-09
-2.09808e-08
-5.28796e-09
-2.1647e-08
-4.48077e-09
-2.19022e-08
-3.52468e-09
-2.17179e-08
-2.44679e-09
-1.27895e-09
-2.10777e-08
-2.85939e-10
-4.26764e-10
-9.70826e-10
-1.35531e-09
-1.95309e-09
-2.17878e-09
-3.17537e-09
-2.86419e-09
-4.59501e-09
-3.4336e-09
-6.17417e-09
-3.9095e-09
-7.8746e-09
-4.30209e-09
-9.65461e-09
-4.6101e-09
-1.14678e-08
-4.82462e-09
-1.3263e-08
-4.93316e-09
-1.49857e-08
-4.92329e-09
-1.65798e-08
-4.78544e-09
-1.79903e-08
-4.51483e-09
-1.91657e-08
-4.11259e-09
-2.00605e-08
-3.58598e-09
-2.06372e-08
-2.94794e-09
-2.0868e-08
-2.21607e-09
-1.41199e-09
-2.07349e-08
-2.02299e-10
-2.24465e-10
-7.1445e-10
-8.43159e-10
-1.4742e-09
-1.41903e-09
-2.43945e-09
-1.89894e-09
-3.57625e-09
-2.29681e-09
-4.85486e-09
-2.63089e-09
-6.24627e-09
-2.91068e-09
-7.71948e-09
-3.13689e-09
-9.23997e-09
-3.30414e-09
-1.07693e-08
-3.40385e-09
-1.22656e-08
-3.42697e-09
-1.36851e-08
-3.36593e-09
-1.49838e-08
-3.21617e-09
-1.61194e-08
-2.97697e-09
-1.70536e-08
-2.65174e-09
-1.77537e-08
-2.24783e-09
-1.81939e-08
-1.77594e-09
-1.24976e-09
-1.83561e-08
-1.27978e-10
-9.64872e-11
-4.84649e-10
-4.86488e-10
-1.0384e-09
-8.65281e-10
-1.75829e-09
-1.17904e-09
-2.61744e-09
-1.43766e-09
-3.59311e-09
-1.65522e-09
-4.66419e-09
-1.83959e-09
-5.80881e-09
-1.99228e-09
-7.0027e-09
-2.11024e-09
-8.21854e-09
-2.18802e-09
-9.42603e-09
-2.21947e-09
-1.05928e-08
-2.1992e-09
-1.16854e-08
-2.1235e-09
-1.26714e-08
-1.99104e-09
-1.35201e-08
-1.80306e-09
-1.42045e-08
-1.56337e-09
-1.47025e-08
-1.27797e-09
-9.54829e-10
-1.49974e-08
-6.98948e-11
-2.65923e-11
-3.01418e-10
-2.54965e-10
-6.82867e-10
-4.83831e-10
-1.19093e-09
-6.70977e-10
-1.80469e-09
-8.23907e-10
-2.50733e-09
-9.52577e-10
-3.28422e-09
-1.0627e-09
-4.12078e-09
-1.15572e-09
-5.00092e-09
-1.2301e-09
-5.9063e-09
-1.28263e-09
-6.81623e-09
-1.30954e-09
-7.70805e-09
-1.30737e-09
-8.558e-09
-1.27356e-09
-9.3422e-09
-1.20683e-09
-1.00378e-08
-1.10743e-09
-1.06241e-08
-9.77085e-10
-1.10832e-08
-8.18839e-10
-6.36841e-10
-1.14012e-08
-2.96438e-11
3.05151e-12
-1.68399e-10
-1.1621e-10
-4.14794e-10
-2.37436e-10
-7.51043e-10
-3.34728e-10
-1.16154e-09
-4.13407e-10
-1.63456e-09
-4.79562e-10
-2.16058e-09
-5.36679e-10
-2.73054e-09
-5.85768e-10
-3.33451e-09
-6.26133e-10
-3.96101e-09
-6.56125e-10
-4.59682e-09
-6.73735e-10
-5.22715e-09
-6.77046e-10
-5.83615e-09
-6.6456e-10
-6.40757e-09
-6.3541e-10
-6.92553e-09
-5.89475e-10
-7.37521e-09
-5.27402e-10
-7.74352e-09
-4.50532e-10
-3.60697e-10
-8.01966e-09
-5.84327e-12
8.89478e-12
-8.04545e-11
-4.15988e-11
-2.25683e-10
-9.22077e-11
-4.28467e-10
-1.31944e-10
-6.78168e-10
-1.63706e-10
-9.67338e-10
-1.90393e-10
-1.29039e-09
-2.13632e-10
-1.64223e-09
-2.33926e-10
-2.01734e-09
-2.51025e-10
-2.4092e-09
-2.64258e-10
-2.81016e-09
-2.72779e-10
-3.21144e-09
-2.75763e-10
-3.60347e-09
-2.72531e-10
-3.97623e-09
-2.62653e-10
-4.31971e-09
-2.45987e-10
-4.62442e-09
-2.227e-10
-4.88172e-09
-1.93233e-10
-1.58202e-10
-5.08421e-09
4.53933e-12
4.35544e-12
-2.87625e-11
-8.29695e-12
-1.00721e-10
-2.02487e-11
-2.03253e-10
-2.94121e-11
-3.30327e-10
-3.66328e-11
-4.78022e-10
-4.26975e-11
-6.43621e-10
-4.80326e-11
-8.24772e-10
-5.27741e-11
-1.01893e-09
-5.68708e-11
-1.22302e-09
-6.01663e-11
-1.43334e-09
-6.24589e-11
-1.64555e-09
-6.3546e-11
-1.85483e-09
-6.32552e-11
-2.05602e-09
-6.1467e-11
-2.24388e-09
-5.81265e-11
-2.41333e-09
-5.32485e-11
-2.55967e-09
-4.68916e-11
-3.91691e-11
-2.6787e-09
4.35544e-12
-3.9415e-12
-2.41902e-11
-5.36023e-11
-9.02351e-11
-1.32933e-10
-1.80965e-10
-2.33739e-10
-2.9061e-10
-3.50776e-10
-4.13235e-10
-4.76781e-10
-5.40036e-10
-6.01503e-10
-6.5963e-10
-7.12878e-10
-7.5977e-10
-7.98939e-10
5.67451e-11
-5.67451e-11
1.97828e-10
-1.41083e-10
3.8893e-10
-1.91101e-10
5.97633e-10
-2.08704e-10
7.9801e-10
-2.00377e-10
9.70222e-10
-1.72212e-10
1.09968e-09
-1.29459e-10
1.17614e-09
-7.64573e-11
1.19277e-09
-1.6633e-11
1.14527e-09
4.75008e-11
1.03122e-09
1.14053e-10
8.49324e-10
1.81894e-10
5.98956e-10
2.50367e-10
2.79719e-10
3.19237e-10
-1.0885e-10
3.88569e-10
-5.6749e-10
4.5864e-10
-1.09731e-09
5.29822e-10
-1.6998e-09
6.02487e-10
-2.37675e-09
6.76946e-10
-3.13012e-09
7.53375e-10
-3.96187e-09
8.31752e-10
-4.87369e-09
9.1182e-10
-5.86675e-09
9.93059e-10
-6.94142e-09
1.07467e-09
-8.09701e-09
1.15559e-09
-9.33148e-09
1.23447e-09
-1.06412e-08
1.30975e-09
-1.20209e-08
1.37963e-09
-1.3463e-08
1.44217e-09
-1.49583e-08
1.49529e-09
-1.64951e-08
1.53682e-09
-1.80598e-08
1.56463e-09
-1.96364e-08
1.57659e-09
-2.12071e-08
1.57076e-09
-2.27525e-08
1.54537e-09
-2.42515e-08
1.49895e-09
-2.56819e-08
1.4304e-09
-2.70209e-08
1.33901e-09
-2.82455e-08
1.2246e-09
-2.93329e-08
1.08748e-09
-3.02615e-08
9.28522e-10
-3.10106e-08
7.49162e-10
-3.1562e-08
5.51358e-10
-3.18996e-08
3.37585e-10
-3.20106e-08
1.11062e-10
-3.18842e-08
-1.26472e-10
-3.15146e-08
-3.69521e-10
-3.08995e-08
-6.15088e-10
-3.00402e-08
-8.59393e-10
-2.89415e-08
-1.09865e-09
-2.76122e-08
-1.3293e-09
-2.60641e-08
-1.54812e-09
-2.43119e-08
-1.75223e-09
-2.23726e-08
-1.93926e-09
-2.02653e-08
-2.10732e-09
-1.80102e-08
-2.25508e-09
-1.56285e-08
-2.38171e-09
-1.31416e-08
-2.48687e-09
-1.0571e-08
-2.57063e-09
-7.93758e-09
-2.6334e-09
-5.26182e-09
-2.67576e-09
-2.56349e-09
-2.69833e-09
1.38057e-10
-2.70155e-09
2.82429e-09
-2.68623e-09
5.47683e-09
-2.65253e-09
8.07679e-09
-2.59996e-09
1.06052e-08
-2.52844e-09
1.30426e-08
-2.43736e-09
1.53684e-08
-2.32581e-09
1.75611e-08
-2.19269e-09
1.9598e-08
-2.03689e-09
2.14555e-08
-1.85747e-09
2.31094e-08
-1.65391e-09
2.45356e-08
-1.42626e-09
2.57111e-08
-1.17544e-09
2.66144e-08
-9.0337e-10
2.72276e-08
-6.1317e-10
2.75372e-08
-3.09542e-10
2.75319e-08
5.22683e-12
2.7215e-08
3.16885e-10
2.65903e-08
6.24717e-10
2.56724e-08
9.17965e-10
2.4484e-08
1.18837e-09
2.30562e-08
1.4278e-09
2.14273e-08
1.62893e-09
1.96414e-08
1.78581e-09
1.77471e-08
1.89436e-09
1.57944e-08
1.95272e-09
1.38329e-08
1.96146e-09
1.19094e-08
1.92353e-09
1.00653e-08
1.84404e-09
8.33553e-09
1.72981e-09
6.74677e-09
1.58876e-09
5.31752e-09
1.42925e-09
4.05807e-09
1.25945e-09
2.97121e-09
1.08686e-09
2.05321e-09
9.17997e-10
1.29486e-09
7.58349e-10
6.82479e-10
6.12386e-10
1.98831e-10
4.83647e-10
-1.75923e-10
3.74754e-10
-4.63177e-10
2.87254e-10
-6.84591e-10
2.21415e-10
-8.60718e-10
1.76127e-10
-1.00967e-09
1.4895e-10
-1.14605e-09
1.3638e-10
-1.28035e-09
1.34305e-10
-1.41888e-09
1.38531e-10
-1.56415e-09
1.4527e-10
-1.71562e-09
1.51467e-10
-1.87057e-09
1.54951e-10
-2.02499e-09
1.54422e-10
-2.17432e-09
1.4933e-10
-2.31403e-09
1.39707e-10
-2.44002e-09
1.25995e-10
-2.54892e-09
1.08893e-10
-2.63816e-09
8.92416e-11
-2.70609e-09
6.79345e-11
-2.75195e-09
4.58532e-11
-2.77577e-09
2.38218e-11
-2.77847e-09
2.70164e-12
-2.76126e-09
-1.721e-11
-2.72621e-09
-3.50471e-11
-2.6756e-09
-5.06141e-11
-2.61194e-09
-6.36548e-11
-2.53789e-09
-7.40587e-11
-2.45605e-09
-8.18323e-11
-2.36897e-09
-8.70798e-11
-2.27899e-09
-8.9984e-11
-2.1882e-09
-9.07854e-11
-2.09844e-09
-8.97619e-11
-2.01123e-09
-8.72105e-11
-1.9278e-09
-8.34308e-11
-1.84909e-09
-7.8712e-11
-1.77577e-09
-7.33225e-11
-1.70826e-09
-6.75035e-11
-1.6468e-09
-6.14646e-11
-1.59142e-09
-5.53822e-11
-1.54202e-09
-4.94001e-11
-1.49838e-09
-4.36307e-11
-1.46023e-09
-3.81585e-11
-1.42718e-09
-3.30428e-11
-1.39886e-09
-2.83217e-11
-1.37485e-09
-2.40157e-11
-1.35471e-09
-2.0131e-11
-1.33805e-09
-1.66626e-11
-1.32446e-09
-1.35973e-11
-1.31354e-09
-1.09159e-11
-1.30494e-09
-8.59501e-12
-1.29834e-09
-6.60847e-12
-1.29341e-09
-4.92894e-12
-1.28988e-09
-3.52953e-12
-1.2875e-09
-2.38206e-12
-1.28604e-09
-1.45837e-12
-1.2853e-09
-7.34278e-13
-1.28515e-09
-1.54067e-13
-1.2854e-09
2.54041e-13
-1.28594e-09
5.4117e-13
-1.28668e-09
7.35736e-13
-1.28754e-09
8.65591e-13
-1.2885e-09
9.51803e-13
-1.28952e-09
1.01876e-12
-1.2906e-09
1.08921e-12
-1.29179e-09
1.18149e-12
-1.29309e-09
1.30572e-12
-1.29455e-09
1.45905e-12
-1.29617e-09
1.61974e-12
-1.29791e-09
1.74071e-12
-1.29966e-09
1.74372e-12
-1.30117e-09
1.51423e-12
-1.30208e-09
9.06011e-13
-1.30182e-09
-2.56279e-13
-1.29952e-09
-2.29914e-12
-1.29414e-09
-5.37808e-12
-1.2842e-09
-9.94161e-12
-1.26768e-09
-1.65171e-11
-1.24147e-09
-2.62101e-11
-1.19943e-09
-4.20437e-11
-1.13384e-09
-6.55929e-11
-1.43021e-10
-9.90815e-10
1.04549e-10
-1.61294e-10
3.29084e-10
-3.65619e-10
6.05162e-10
-4.67179e-10
8.78069e-10
-4.8161e-10
1.1027e-09
-4.25005e-10
1.24281e-09
-3.12331e-10
1.27004e-09
-1.56688e-10
1.16268e-09
3.09109e-11
9.04479e-10
2.41564e-10
4.83616e-10
4.68364e-10
-1.08525e-10
7.06194e-10
-8.7815e-10
9.5152e-10
-1.8299e-09
1.20212e-09
-2.96745e-09
1.45679e-09
-4.29401e-09
1.71513e-09
-5.81255e-09
1.97718e-09
-7.52598e-09
2.24325e-09
-9.43702e-09
2.51353e-09
-1.15481e-08
2.78799e-09
-1.38608e-08
3.06606e-09
-1.63755e-08
3.34654e-09
-1.90911e-08
3.62742e-09
-2.2004e-08
3.90588e-09
-2.51075e-08
4.17822e-09
-2.83918e-08
4.4399e-09
-3.1843e-08
4.68565e-09
-3.54428e-08
4.90954e-09
-3.91683e-08
5.10517e-09
-4.2992e-08
5.26583e-09
-4.68814e-08
5.3847e-09
-5.07996e-08
5.45505e-09
-5.47056e-08
5.47054e-09
-5.85543e-08
5.42539e-09
-6.22982e-08
5.31464e-09
-6.58872e-08
5.13437e-09
-6.92702e-08
4.88191e-09
-7.23958e-08
4.55599e-09
-7.52136e-08
4.15687e-09
-7.76754e-08
3.68639e-09
-7.9736e-08
3.14806e-09
-8.13544e-08
2.54693e-09
-8.24948e-08
1.88956e-09
-8.31273e-08
1.18386e-09
-8.32287e-08
4.38987e-10
-8.27824e-08
-3.35236e-10
-8.17805e-08
-1.1284e-09
-8.02215e-08
-1.92854e-09
-7.81119e-08
-2.7247e-09
-7.54652e-08
-3.50601e-09
-7.23017e-08
-4.26214e-09
-6.86475e-08
-4.98359e-09
-6.45337e-08
-5.6619e-09
-5.9996e-08
-6.28988e-09
-5.50735e-08
-6.86175e-09
-4.98077e-08
-7.37318e-09
-4.42415e-08
-7.82129e-09
-3.84186e-08
-8.20462e-09
-3.23825e-08
-8.52297e-09
-2.61759e-08
-8.77716e-09
-1.98406e-08
-8.96878e-09
-1.34165e-08
-9.09984e-09
-6.94236e-09
-9.17244e-09
-4.5559e-10
-9.18831e-09
6.00655e-09
-9.14838e-09
1.24069e-08
-9.05287e-09
1.87084e-08
-8.90147e-09
2.48729e-08
-8.69294e-09
3.08604e-08
-8.42483e-09
3.66282e-08
-8.09366e-09
4.21308e-08
-7.69526e-09
4.73191e-08
-7.22519e-09
5.21409e-08
-6.67926e-09
5.65411e-08
-6.05415e-09
6.04629e-08
-5.348e-09
6.38486e-08
-4.56118e-09
6.66421e-08
-3.69684e-09
6.87905e-08
-2.76159e-09
7.02468e-08
-1.76584e-09
7.09758e-08
-7.23767e-10
7.09482e-08
3.44417e-10
7.01568e-08
1.41611e-09
6.86088e-08
2.46604e-09
6.63316e-08
3.46559e-09
6.33737e-08
4.38569e-09
5.98046e-08
5.19803e-09
5.57134e-08
5.87696e-09
5.12063e-08
6.4015e-09
4.64018e-08
6.75717e-09
4.14259e-08
6.93735e-09
3.64053e-08
6.94413e-09
3.14611e-08
6.78824e-09
2.67027e-08
6.4882e-09
2.22229e-08
6.0686e-09
1.80942e-08
5.55794e-09
1.43674e-08
4.98624e-09
1.10714e-08
4.38287e-09
8.21451e-09
3.77489e-09
5.78676e-09
3.1861e-09
3.76257e-09
2.63657e-09
2.10374e-09
2.14248e-09
7.62622e-10
1.71587e-09
-3.14351e-10
1.36423e-09
-1.18287e-09
1.08993e-09
-1.89671e-09
8.89967e-10
-2.50412e-09
7.56358e-10
-3.04501e-09
6.77276e-10
-3.5493e-09
6.38596e-10
-4.03652e-09
6.2575e-10
-4.51663e-09
6.2538e-10
-4.99169e-09
6.26519e-10
-5.45789e-09
6.21155e-10
-5.90773e-09
6.04263e-10
-6.33186e-09
5.73457e-10
-6.7206e-09
5.28453e-10
-7.0651e-09
4.70489e-10
-7.35801e-09
4.01801e-10
-7.59396e-09
3.25193e-10
-7.76973e-09
2.43709e-10
-7.88427e-09
1.60386e-10
-7.9385e-09
7.80528e-11
-7.93535e-09
-4.41635e-13
-7.87889e-09
-7.3668e-11
-7.77475e-09
-1.39187e-10
-7.62927e-09
-1.96097e-10
-7.44932e-09
-2.43604e-10
-7.24199e-09
-2.81388e-10
-7.0143e-09
-3.0953e-10
-6.77293e-09
-3.28447e-10
-6.52409e-09
-3.38826e-10
-6.27332e-09
-3.41551e-10
-6.02545e-09
-3.37633e-10
-5.78451e-09
-3.28147e-10
-5.55377e-09
-3.14173e-10
-5.33573e-09
-2.96754e-10
-5.13219e-09
-2.76861e-10
-4.94433e-09
-2.55365e-10
-4.77277e-09
-2.33027e-10
-4.61766e-09
-2.1049e-10
-4.47878e-09
-1.8828e-10
-4.3556e-09
-1.66814e-10
-4.24735e-09
-1.46405e-10
-4.15312e-09
-1.27276e-10
-4.07186e-09
-1.09576e-10
-4.00249e-09
-9.33861e-11
-3.94389e-09
-7.87364e-11
-3.89493e-09
-6.56155e-11
-3.85455e-09
-5.39808e-11
-3.8217e-09
-4.37662e-11
-3.79541e-09
-3.48899e-11
-3.77475e-09
-2.72594e-11
-3.75891e-09
-2.07762e-11
-3.7471e-09
-1.53397e-11
-3.73863e-09
-1.0848e-11
-3.73289e-09
-7.2008e-12
-3.72932e-09
-4.29857e-12
-3.72744e-09
-2.03692e-12
-3.72685e-09
-3.4212e-13
-3.7272e-09
8.96479e-13
-3.72822e-09
1.75708e-12
-3.72971e-09
2.35035e-12
-3.73152e-09
2.76002e-12
-3.73357e-09
3.07381e-12
-3.73585e-09
3.37084e-12
-3.73838e-09
3.71171e-12
-3.7412e-09
4.12523e-12
-3.74433e-09
4.59006e-12
-3.74773e-09
5.01421e-12
-3.7512e-09
5.21218e-12
-3.75434e-09
4.88456e-12
-3.75643e-09
3.60092e-12
-3.75632e-09
8.03658e-13
-3.75234e-09
-4.23528e-12
-3.74226e-09
-1.23856e-11
-3.72298e-09
-2.46562e-11
-3.69054e-09
-4.23793e-11
-3.63966e-09
-6.74026e-11
-3.56282e-09
-1.03045e-10
-3.4489e-09
-1.5597e-10
-3.27773e-09
-2.36757e-10
-4.0009e-10
-3.02066e-09
8.44045e-11
-2.45699e-10
2.40984e-10
-5.22198e-10
3.94377e-10
-6.20572e-10
4.85327e-10
-5.7256e-10
4.65779e-10
-4.05457e-10
2.96672e-10
-1.43223e-10
-5.36018e-11
1.93585e-10
-6.10426e-10
5.87735e-10
-1.39406e-09
1.0252e-09
-2.42061e-09
1.49491e-09
-3.70289e-09
1.98847e-09
-5.25115e-09
2.49978e-09
-7.0737e-09
3.02467e-09
-9.17734e-09
3.56043e-09
-1.15676e-08
4.10539e-09
-1.42489e-08
4.65846e-09
-1.72243e-08
5.21867e-09
-2.04955e-08
5.78472e-09
-2.40621e-08
6.35461e-09
-2.79213e-08
6.92525e-09
-3.2067e-08
7.49226e-09
-3.64893e-08
8.04973e-09
-4.11737e-08
8.59023e-09
-4.61002e-08
9.1048e-09
-5.12435e-08
9.58314e-09
-5.65716e-08
1.00138e-08
-6.20466e-08
1.03845e-08
-6.76241e-08
1.06826e-08
-7.32537e-08
1.08954e-08
-7.88795e-08
1.10105e-08
-8.4441e-08
1.10166e-08
-8.9874e-08
1.09035e-08
-9.51115e-08
1.06629e-08
-1.00085e-07
1.02886e-08
-1.04728e-07
9.77669e-09
-1.08972e-07
9.12611e-09
-1.12754e-07
8.33849e-09
-1.16016e-07
7.41834e-09
-1.18703e-07
6.37302e-09
-1.20767e-07
5.21255e-09
-1.2217e-07
3.94944e-09
-1.22878e-07
2.59838e-09
-1.2287e-07
1.17589e-09
-1.22132e-07
-2.99908e-10
-1.20657e-07
-1.81005e-09
-1.18451e-07
-3.33462e-09
-1.15525e-07
-4.85401e-09
-1.11901e-07
-6.34919e-09
-1.07605e-07
-7.802e-09
-1.02671e-07
-9.19565e-09
-9.71396e-08
-1.0515e-08
-9.10546e-08
-1.1747e-08
-8.44637e-08
-1.28807e-08
-7.74176e-08
-1.39079e-08
-6.99682e-08
-1.48225e-08
-6.21682e-08
-1.56212e-08
-5.40701e-08
-1.63028e-08
-4.5725e-08
-1.6868e-08
-3.71828e-08
-1.73194e-08
-2.84911e-08
-1.76605e-08
-1.96955e-08
-1.78954e-08
-1.08396e-08
-1.80284e-08
-1.96507e-09
-1.80628e-08
6.88699e-09
-1.80004e-08
1.56755e-08
-1.78414e-08
2.43587e-08
-1.75847e-08
3.28936e-08
-1.72278e-08
4.12341e-08
-1.67654e-08
4.93307e-08
-1.61902e-08
5.71291e-08
-1.54936e-08
6.45699e-08
-1.4666e-08
7.15884e-08
-1.36977e-08
7.81145e-08
-1.25802e-08
8.40735e-08
-1.1307e-08
8.93871e-08
-9.87485e-09
9.39755e-08
-8.28519e-09
9.7759e-08
-6.54508e-09
1.00661e-07
-4.66835e-09
1.02614e-07
-2.67646e-09
1.03558e-07
-5.99215e-10
1.03449e-07
1.52467e-09
1.02266e-07
3.64949e-09
1.00009e-07
5.72255e-09
9.67076e-08
7.68691e-09
9.2422e-08
9.48368e-09
8.72434e-08
1.10555e-08
8.12944e-08
1.23506e-08
7.47247e-08
1.33269e-08
6.77059e-08
1.39562e-08
6.0423e-08
1.4227e-08
5.30648e-08
1.41464e-08
4.58135e-08
1.37396e-08
3.88341e-08
1.30479e-08
3.22668e-08
1.21253e-08
2.62202e-08
1.10328e-08
2.07691e-08
9.83401e-09
1.59534e-08
8.59058e-09
1.17808e-08
7.35872e-09
8.2301e-09
6.18725e-09
5.25629e-09
5.11629e-09
2.79594e-09
4.17622e-09
7.73491e-10
3.38667e-09
-8.92254e-10
2.75568e-09
-2.28154e-09
2.27926e-09
-3.46763e-09
1.94244e-09
-4.5123e-09
1.72195e-09
-5.46321e-09
1.5895e-09
-6.35303e-09
1.51557e-09
-7.20048e-09
1.47284e-09
-8.01257e-09
1.4386e-09
-8.78743e-09
1.39602e-09
-9.51743e-09
1.33426e-09
-1.01918e-08
1.24784e-09
-1.0799e-08
1.13566e-09
-1.13283e-08
9.99794e-10
-1.1771e-08
8.44477e-10
-1.2121e-08
6.75173e-10
-1.23752e-08
4.97899e-10
-1.25335e-08
3.18694e-10
-1.25987e-08
1.43245e-10
-1.25758e-08
-2.33445e-11
-1.24724e-08
-1.77038e-10
-1.22972e-08
-3.14339e-10
-1.20604e-08
-4.32971e-10
-1.17724e-08
-5.31554e-10
-1.14442e-08
-6.0959e-10
-1.10864e-08
-6.67373e-10
-1.0709e-08
-7.05865e-10
-1.03212e-08
-7.26559e-10
-9.93144e-09
-7.31333e-10
-9.54676e-09
-7.22307e-10
-9.17319e-09
-7.0172e-10
-8.81555e-09
-6.71817e-10
-8.47754e-09
-6.34759e-10
-8.16185e-09
-5.92551e-10
-7.87021e-09
-5.47002e-10
-7.60355e-09
-4.99688e-10
-7.3621e-09
-4.51944e-10
-7.14551e-09
-4.04866e-10
-6.953e-09
-3.59323e-10
-6.78344e-09
-3.15973e-10
-6.63542e-09
-2.7529e-10
-6.50741e-09
-2.37588e-10
-6.39775e-09
-2.03046e-10
-6.30475e-09
-1.71734e-10
-6.22673e-09
-1.43636e-10
-6.16205e-09
-1.18668e-10
-6.10911e-09
-9.66983e-11
-6.06644e-09
-7.75594e-11
-6.03264e-09
-6.10615e-11
-6.00642e-09
-4.7001e-11
-5.98659e-09
-3.51676e-11
-5.97209e-09
-2.53496e-11
-5.96195e-09
-1.73368e-11
-5.95533e-09
-1.09221e-11
-5.95146e-09
-5.90141e-12
-5.94972e-09
-2.08254e-12
-5.94956e-09
7.36492e-13
-5.95055e-09
2.74684e-12
-5.95235e-09
4.14754e-12
-5.95472e-09
5.12521e-12
-5.9575e-09
5.85911e-12
-5.96064e-09
6.50656e-12
-5.96411e-09
7.18359e-12
-5.96792e-09
7.93599e-12
-5.97203e-09
8.70264e-12
-5.97629e-09
9.27191e-12
-5.98031e-09
9.23655e-12
-5.98338e-09
7.95201e-12
-5.98429e-09
4.50508e-12
-5.98118e-09
-2.29903e-12
-5.97146e-09
-1.39549e-11
-5.95161e-09
-3.2242e-11
-5.91699e-09
-5.92771e-11
-5.8617e-09
-9.76643e-11
-5.7782e-09
-1.50904e-10
-5.65668e-09
-2.24564e-10
-5.48422e-09
-3.28436e-10
-5.24108e-09
-4.79891e-10
-7.11846e-10
-4.92932e-09
2.0274e-11
-2.65973e-10
4.65763e-12
-5.06582e-10
-1.0948e-10
-5.06434e-10
-3.72296e-10
-3.09744e-10
-8.24584e-10
4.68318e-11
-1.49972e-09
5.31908e-10
-2.42544e-09
1.11931e-09
-3.62488e-09
1.78718e-09
-5.11751e-09
2.51782e-09
-6.91981e-09
3.29722e-09
-9.04585e-09
4.1145e-09
-1.15075e-08
4.96144e-09
-1.43147e-08
5.83189e-09
-1.74755e-08
6.72118e-09
-2.09956e-08
7.62555e-09
-2.48787e-08
8.54152e-09
-2.91254e-08
9.46532e-09
-3.37329e-08
1.03923e-08
-3.86946e-08
1.13163e-08
-4.3999e-08
1.22296e-08
-4.96289e-08
1.31222e-08
-5.55612e-08
1.3982e-08
-6.17658e-08
1.47948e-08
-6.82054e-08
1.55444e-08
-7.48355e-08
1.62132e-08
-8.16041e-08
1.67824e-08
-8.84524e-08
1.72329e-08
-9.53155e-08
1.75457e-08
-1.02123e-07
1.7703e-08
-1.08801e-07
1.76883e-08
-1.15272e-07
1.74875e-08
-1.21458e-07
1.70896e-08
-1.27282e-07
1.64866e-08
-1.32667e-07
1.56744e-08
-1.37543e-07
1.46528e-08
-1.41843e-07
1.34257e-08
-1.45505e-07
1.2001e-08
-1.48478e-07
1.03907e-08
-1.50715e-07
8.61007e-09
-1.5218e-07
6.67798e-09
-1.52847e-07
4.61598e-09
-1.52696e-07
2.44803e-09
-1.51721e-07
2.00046e-10
-1.4992e-07
-2.10066e-09
-1.47304e-07
-4.42627e-09
-1.43889e-07
-6.74914e-09
-1.39701e-07
-9.04225e-09
-1.3477e-07
-1.12797e-08
-1.29135e-07
-1.34371e-08
-1.22838e-07
-1.54924e-08
-1.15927e-07
-1.7426e-08
-1.08453e-07
-1.92213e-08
-1.00469e-07
-2.08648e-08
-9.20302e-08
-2.23467e-08
-8.31921e-08
-2.36606e-08
-7.40101e-08
-2.48033e-08
-6.45379e-08
-2.57749e-08
-5.48276e-08
-2.65784e-08
-4.49285e-08
-2.72185e-08
-3.48872e-08
-2.77017e-08
-2.47475e-08
-2.80352e-08
-1.45503e-08
-2.82256e-08
-4.3345e-09
-2.82786e-08
5.86295e-09
-2.81979e-08
1.60054e-08
-2.79838e-08
2.60551e-08
-2.76344e-08
3.59722e-08
-2.71449e-08
4.57139e-08
-2.65071e-08
5.52332e-08
-2.57094e-08
6.44771e-08
-2.47376e-08
7.33867e-08
-2.35756e-08
8.18958e-08
-2.22068e-08
8.9931e-08
-2.06155e-08
9.74122e-08
-1.87881e-08
1.04253e-07
-1.67153e-08
1.10361e-07
-1.43933e-08
1.15641e-07
-1.18259e-08
1.19999e-07
-9.02622e-09
1.23341e-07
-6.01798e-09
1.25579e-07
-2.8369e-09
1.26635e-07
4.68172e-10
1.26449e-07
3.83511e-09
1.24983e-07
7.18899e-09
1.22225e-07
1.04448e-08
1.18198e-07
1.35103e-08
1.12964e-07
1.62899e-08
1.06623e-07
1.86912e-08
9.93194e-08
2.06309e-08
9.12328e-08
2.20428e-08
8.25753e-08
2.28845e-08
7.35794e-08
2.31422e-08
6.4485e-08
2.2834e-08
5.55245e-08
2.20084e-08
4.69091e-08
2.07407e-08
3.88163e-08
1.91256e-08
3.13819e-08
1.72685e-08
2.46953e-08
1.52772e-08
1.87998e-08
1.32541e-08
1.36959e-08
1.12912e-08
9.34668e-09
9.46554e-09
5.68581e-09