/*--------------------------------*- C++ -*----------------------------------*\
  =========                 |
  \\      /  F ield         | OpenFOAM: The Open Source CFD Toolbox
   \\    /   O peration     | Website:  https://openfoam.org
    \\  /    A nd           | Version:  8
     \\/     M anipulation  |
\*---------------------------------------------------------------------------*/
FoamFile
{
    version     2.0;
    format      ascii;
    class       volVectorField;
    location    "0.78";
    object      U;
}
// * * * * * * * * * * * * * * * * * * * * * * * * * * * * * * * * * * * * * //

dimensions      [0 1 -1 0 0 0 0];

internalField   nonuniform List<vector> 
12225
(
(-8.43413e-06 1.14556e-06 0)
(-3.89275e-06 -6.42236e-07 0)
(3.28324e-05 -1.63421e-06 0)
(9.23112e-05 -2.51192e-06 0)
(0.00017051 -3.27147e-06 0)
(0.000264121 -4.00341e-06 0)
(0.000371322 -4.73735e-06 0)
(0.000490858 -5.50412e-06 0)
(0.00062194 -6.33573e-06 0)
(0.000764222 -7.28571e-06 0)
(0.000917968 -8.44855e-06 0)
(0.00108429 -9.99169e-06 0)
(0.00126543 -1.2221e-05 0)
(0.00146436 -1.56296e-05 0)
(0.00168205 -2.00362e-05 0)
(0.00191162 -1.95711e-05 0)
(0.00207258 -2.7605e-05 0)
(0.000266539 0.00124788 0)
(-1.72508e-05 2.92431e-06 0)
(6.52166e-06 -9.99127e-06 0)
(0.000117695 -2.27573e-05 0)
(0.000293928 -3.38674e-05 0)
(0.000523982 -4.38775e-05 0)
(0.00079851 -5.33653e-05 0)
(0.0011118 -6.26936e-05 0)
(0.00145958 -7.20979e-05 0)
(0.00183859 -8.17903e-05 0)
(0.0022463 -9.20568e-05 0)
(0.00268092 -0.000103321 0)
(0.00314104 -0.000116126 0)
(0.00362423 -0.000130837 0)
(0.00412126 -0.000146063 0)
(0.00459898 -0.000150819 0)
(0.00494265 -8.54382e-05 0)
(0.00481989 0.000308311 0)
(0.00131236 0.00311251 0)
(-1.99755e-05 3.41013e-06 0)
(3.3638e-05 -3.18669e-05 0)
(0.000222923 -6.86589e-05 0)
(0.000516869 -0.00010109 0)
(0.000897915 -0.000130522 0)
(0.00135108 -0.000158323 0)
(0.00186644 -0.00018541 0)
(0.00243604 -0.000212304 0)
(0.00305305 -0.000239365 0)
(0.003711 -0.000266944 0)
(0.0044031 -0.000295337 0)
(0.00512036 -0.000324239 0)
(0.00584679 -0.000350761 0)
(0.00654559 -0.000362768 0)
(0.00712474 -0.000315159 0)
(0.00733589 -4.32239e-05 0)
(0.0066486 0.00104067 0)
(0.00249113 0.00535525 0)
(-1.81017e-05 1.06344e-08 0)
(7.51857e-05 -7.01572e-05 0)
(0.000346113 -0.000144514 0)
(0.000757742 -0.000210797 0)
(0.0012871 -0.000271224 0)
(0.00191405 -0.000328135 0)
(0.00262416 -0.000383131 0)
(0.0034051 -0.00043696 0)
(0.00424527 -0.000489881 0)
(0.00513236 -0.000541765 0)
(0.00605152 -0.000591634 0)
(0.00698144 -0.000635874 0)
(0.00788545 -0.000662954 0)
(0.0086904 -0.000638434 0)
(0.00924154 -0.000460674 0)
(0.00919531 0.000169269 0)
(0.00797151 0.00212043 0)
(0.00376513 0.00774581 0)
(-1.29092e-05 -1.02846e-05 0)
(0.000128502 -0.000128564 0)
(0.000483882 -0.000254088 0)
(0.00101178 -0.000367115 0)
(0.00168459 -0.000470503 0)
(0.00247752 -0.000567583 0)
(0.00337139 -0.000660575 0)
(0.00434882 -0.000750194 0)
(0.00539226 -0.00083604 0)
(0.00648169 -0.000916457 0)
(0.00759156 -0.000987269 0)
(0.00868466 -0.00103796 0)
(0.00969991 -0.00104177 0)
(0.0105274 -0.00093095 0)
(0.0109638 -0.000534303 0)
(0.0106324 0.000573489 0)
(0.00902562 0.00341367 0)
(0.0050912 0.0100468 0)
(-5.46683e-06 -3.03125e-05 0)
(0.000190519 -0.000211111 0)
(0.000631769 -0.000401543 0)
(0.00127265 -0.000574433 0)
(0.00208146 -0.000732972 0)
(0.00302922 -0.000881331 0)
(0.00409187 -0.00102208 0)
(0.00524639 -0.00115539 0)
(0.00646823 -0.0012793 0)
(0.00772822 -0.00138913 0)
(0.00898826 -0.00147497 0)
(0.0101936 -0.00151525 0)
(0.0112591 -0.0014618 0)
(0.0120454 -0.00120643 0)
(0.0123252 -0.000508516 0)
(0.0117457 0.00114891 0)
(0.00993806 0.00481062 0)
(0.00643291 0.0121608 0)
(3.30909e-06 -6.2677e-05 0)
(0.000257786 -0.000321902 0)
(0.000784244 -0.000591137 0)
(0.00153242 -0.000837045 0)
(0.00246675 -0.00106289 0)
(0.00355452 -0.00127339 0)
(0.00476676 -0.00147097 0)
(0.00607443 -0.00165452 0)
(0.00744528 -0.0018193 0)
(0.00884016 -0.00195572 0)
(0.0102078 -0.00204534 0)
(0.0114767 -0.00205167 0)
(0.0125419 -0.00190077 0)
(0.0132473 -0.00144271 0)
(0.013368 -0.000379378 0)
(0.0126148 0.00185226 0)
(0.0107739 0.00622733 0)
(0.00776488 0.0140544 0)
(1.26226e-05 -0.00010967 0)
(0.000326523 -0.000464727 0)
(0.000934755 -0.00082666 0)
(0.00178155 -0.00115843 0)
(0.00282748 -0.00146327 0)
(0.00403651 -0.00174607 0)
(0.0053749 -0.00200843 0)
(0.00680748 -0.00224695 0)
(0.00829415 -0.00245268 0)
(0.00978578 -0.00260908 0)
(0.0112189 -0.00268656 0)
(0.0125081 -0.00263088 0)
(0.0135363 -0.00234095 0)
(0.0141448 -0.0016297 0)
(0.0141341 -0.000161244 0)
(0.0132973 0.00262922 0)
(0.0115593 0.00759314 0)
(0.00906543 0.0157052 0)
(2.17822e-05 -0.000173097 0)
(0.000392713 -0.000642664 0)
(0.00107585 -0.00111093 0)
(0.00200904 -0.00154065 0)
(0.00314881 -0.00193524 0)
(0.00445623 -0.0022993 0)
(0.00589315 -0.00263278 0)
(0.00741859 -0.00292882 0)
(0.00898506 -0.00317274 0)
(0.0105345 -0.00333914 0)
(0.0119936 -0.00338528 0)
(0.013268 -0.00323798 0)
(0.0142372 -0.00277096 0)
(0.0147538 -0.00176939 0)
(0.0146584 0.00011773 0)
(0.013828 0.00342119 0)
(0.0122939 0.00884649 0)
(0.0103106 0.0170924 0)
(3.01766e-05 -0.000254047 0)
(0.000452194 -0.000857583 0)
(0.00119939 -0.00144521 0)
(0.00220264 -0.0019838 0)
(0.00341432 -0.00247742 0)
(0.00479307 -0.00293002 0)
(0.00629697 -0.00333898 0)
(0.00788005 -0.00369277 0)
(0.00948862 -0.0039695 0)
(0.0110578 -0.00413349 0)
(0.0125079 -0.00412782 0)
(0.0137418 -0.0038612 0)
(0.0146442 -0.00318703 0)
(0.0150893 -0.00187497 0)
(0.0149645 0.000419665 0)
(0.0142205 0.00416939 0)
(0.0129596 0.0099337 0)
(0.0114711 0.0181952 0)
(3.72647e-05 -0.000352778 0)
(0.000500793 -0.00110955 0)
(0.00129676 -0.00182851 0)
(0.00234922 -0.00248519 0)
(0.0036065 -0.00308519 0)
(0.00502539 -0.00363148 0)
(0.0065612 -0.00411804 0)
(0.00816429 -0.00452757 0)
(0.00977673 -0.00482983 0)
(0.0113297 -0.00497799 0)
(0.0127416 -0.00490129 0)
(0.0139184 -0.00449296 0)
(0.0147576 -0.00359309 0)
(0.0151611 -0.00196869 0)
(0.0150622 0.000701181 0)
(0.0144693 0.00481787 0)
(0.0135246 0.010808 0)
(0.0125104 0.0189912 0)
(4.22574e-05 -0.000459027 0)
(0.000531813 -0.00137228 0)
(0.00135421 -0.00222111 0)
(0.00242838 -0.00299248 0)
(0.00369931 -0.00369449 0)
(0.0051229 -0.00432921 0)
(0.00665315 -0.00488685 0)
(0.0082387 -0.00534404 0)
(0.00982006 -0.0056623 0)
(0.011328 -0.0057846 0)
(0.0126833 -0.00562886 0)
(0.0137998 -0.00507793 0)
(0.0145913 -0.00396679 0)
(0.014987 -0.00207057 0)
(0.0149565 0.000898972 0)
(0.0145457 0.00527503 0)
(0.0139114 0.0113798 0)
(0.013311 0.0194226 0)
(4.60844e-05 -0.000576059 0)
(0.000548737 -0.0016562 0)
(0.0013784 -0.0026397 0)
(0.00245094 -0.00352809 0)
(0.00370855 -0.00433295 0)
(0.00510706 -0.00505555 0)
(0.00660051 -0.00568203 0)
(0.00813756 -0.00618262 0)
(0.00965943 -0.00651061 0)
(0.0110993 -0.00659951 0)
(0.0123838 -0.00635797 0)
(0.0134378 -0.00566231 0)
(0.0141935 -0.00434843 0)
(0.0146059 -0.00220675 0)
(0.0146746 0.0010131 0)
(0.0144691 0.00557865 0)
(0.014147 0.0117244 0)
(0.0139349 0.0195771 0)
(4.85943e-05 -0.000720767 0)
(0.000546902 -0.00200396 0)
(0.00135619 -0.00314538 0)
(0.0023924 -0.00416847 0)
(0.00359601 -0.00509011 0)
(0.0049242 -0.00591084 0)
(0.00633304 -0.00661208 0)
(0.00777378 -0.00715673 0)
(0.00919151 -0.00748913 0)
(0.0105258 -0.00753363 0)
(0.0117136 -0.00719149 0)
(0.0126954 -0.00633688 0)
(0.0134249 -0.00481373 0)
(0.0138828 -0.00243679 0)
(0.0140933 0.000998364 0)
(0.0141396 0.00569132 0)
(0.014168 0.011797 0)
(0.0143694 0.0193766 0)
(4.82102e-05 -0.000891576 0)
(0.00051362 -0.00241188 0)
(0.00125837 -0.00373114 0)
(0.00220372 -0.00490247 0)
(0.00329175 -0.00595074 0)
(0.00448343 -0.00687615 0)
(0.00573996 -0.00765522 0)
(0.0070189 -0.00824324 0)
(0.00827363 -0.00857602 0)
(0.00945488 -0.00857038 0)
(0.0105146 -0.00812381 0)
(0.0114125 -0.00711422 0)
(0.0121245 -0.00540129 0)
(0.012654 -0.00283179 0)
(0.0130417 0.00074842 0)
(0.0133729 0.00547404 0)
(0.0137746 0.0114328 0)
(0.0143996 0.0186372 0)
(4.28869e-05 -0.00107803 0)
(0.000432975 -0.00285472 0)
(0.00104853 -0.00436034 0)
(0.00182379 -0.00568305 0)
(0.00270895 -0.00685883 0)
(0.00367268 -0.00788865 0)
(0.00468553 -0.00874479 0)
(0.00571612 -0.00937601 0)
(0.00673119 -0.00971146 0)
(0.0076976 -0.00966371 0)
(0.00858619 -0.00913149 0)
(0.00937739 -0.00800273 0)
(0.0100679 -0.00615925 0)
(0.0106774 -0.00348405 0)
(0.0112541 0.000127656 0)
(0.0118756 0.00475388 0)
(0.0126442 0.01043 0)
(0.0136761 0.0171345 0)
(3.04141e-05 -0.00125277 0)
(0.000288077 -0.00326753 0)
(0.000688438 -0.00494174 0)
(0.00118869 -0.00639824 0)
(0.00175666 -0.00768616 0)
(0.00237426 -0.0088089 0)
(0.00302624 -0.00973661 0)
(0.00369728 -0.0104142 0)
(0.00437232 -0.0107679 0)
(0.00503834 -0.0107106 0)
(0.00568725 -0.0101474 0)
(0.00631976 -0.00898127 0)
(0.00694933 -0.00711913 0)
(0.00760554 -0.00447934 0)
(0.00833558 -0.000999937 0)
(0.00920259 0.00335259 0)
(0.0102827 0.00857623 0)
(0.0116596 0.0146287 0)
(8.87966e-06 -0.00136077 0)
(6.73524e-05 -0.00352107 0)
(0.000153519 -0.00529578 0)
(0.000257958 -0.00683144 0)
(0.000376775 -0.00818831 0)
(0.000510932 -0.00937385 0)
(0.000663441 -0.0103594 0)
(0.000838766 -0.0110907 0)
(0.00104318 -0.0114958 0)
(0.00128574 -0.0114932 0)
(0.00157969 -0.0109984 0)
(0.00194411 -0.009931 0)
(0.00240535 -0.00822134 0)
(0.00299777 -0.0058166 0)
(0.00376317 -0.00268632 0)
(0.00474885 0.00117324 0)
(0.00600558 0.00573639 0)
(0.00758922 0.010951 0)
(-2.28981e-05 -0.00131004 0)
(-0.000219407 -0.00340029 0)
(-0.000529371 -0.00512306 0)
(-0.000921827 -0.00662031 0)
(-0.00136617 -0.00795368 0)
(-0.0018399 -0.00913453 0)
(-0.00232094 -0.0101397 0)
(-0.00278479 -0.0109216 0)
(-0.00320404 -0.0114172 0)
(-0.00354842 -0.0115552 0)
(-0.00378492 -0.0112643 0)
(-0.00387816 -0.0104797 0)
(-0.00379099 -0.0091492 0)
(-0.00348545 -0.00723793 0)
(-0.00292429 -0.00473199 0)
(-0.00207242 -0.00163999 0)
(-0.000896871 0.00200714 0)
(0.000634416 0.00615613 0)
(-4.47769e-05 -0.00107673 0)
(-0.000433933 -0.0028424 0)
(-0.00104858 -0.00432987 0)
(-0.00182985 -0.00564208 0)
(-0.00272514 -0.00682729 0)
(-0.00369976 -0.00789732 0)
(-0.00472075 -0.00883625 0)
(-0.00575182 -0.0096074 0)
(-0.00675269 -0.0101601 0)
(-0.00767957 -0.0104363 0)
(-0.00848626 -0.0103772 0)
(-0.00912565 -0.0099296 0)
(-0.00955152 -0.00905054 0)
(-0.00972044 -0.0077119 0)
(-0.0095938 -0.00590284 0)
(-0.00913926 -0.00363087 0)
(-0.00832977 -0.000921556 0)
(-0.00714069 0.00218287 0)
(-5.31947e-05 -0.000815219 0)
(-0.000531013 -0.00222093 0)
(-0.0012939 -0.00344261 0)
(-0.00227253 -0.00453651 0)
(-0.00340731 -0.00553529 0)
(-0.00466018 -0.00645008 0)
(-0.00599483 -0.00727147 0)
(-0.00737125 -0.00797307 0)
(-0.00874482 -0.0085162 0)
(-0.0100668 -0.00885518 0)
(-0.0112855 -0.00894262 0)
(-0.0123484 -0.0087345 0)
(-0.0132043 -0.00819467 0)
(-0.0138057 -0.00729827 0)
(-0.0141109 -0.00603405 0)
(-0.0140862 -0.00440524 0)
(-0.0137049 -0.00242938 0)
(-0.0129452 -0.000137502 0)
(-5.16455e-05 -0.000563615 0)
(-0.000542463 -0.00161792 0)
(-0.00134263 -0.0025713 0)
(-0.00238366 -0.00343638 0)
(-0.00360768 -0.00423214 0)
(-0.00497758 -0.00496887 0)
(-0.00645772 -0.00564273 0)
(-0.00800898 -0.00623649 0)
(-0.00958762 -0.00672251 0)
(-0.0111454 -0.0070666 0)
(-0.0126305 -0.00723213 0)
(-0.0139897 -0.007184 0)
(-0.0151702 -0.00689229 0)
(-0.0161225 -0.00633512 0)
(-0.0168028 -0.00550061 0)
(-0.0171749 -0.00438777 0)
(-0.0172103 -0.00300663 0)
(-0.0168866 -0.00137811 0)
(-4.28807e-05 -0.000354461 0)
(-0.000491613 -0.00110556 0)
(-0.00124832 -0.00181626 0)
(-0.00225185 -0.00246708 0)
(-0.00345027 -0.00306765 0)
(-0.00480914 -0.00362758 0)
(-0.00629549 -0.00414708 0)
(-0.0078738 -0.00461608 0)
(-0.00950449 -0.00501609 0)
(-0.0111435 -0.00532281 0)
(-0.0127428 -0.00550927 0)
(-0.014252 -0.00554879 0)
(-0.0156203 -0.00541769 0)
(-0.0167992 -0.00509764 0)
(-0.0177445 -0.0045772 0)
(-0.0184184 -0.0038527 0)
(-0.0187906 -0.00292847 0)
(-0.0188377 -0.00181726 0)
(-2.97954e-05 -0.000198851 0)
(-0.000403344 -0.000708528 0)
(-0.00106678 -0.00121416 0)
(-0.00196851 -0.00167874 0)
(-0.00306346 -0.00210698 0)
(-0.00432021 -0.00250776 0)
(-0.00570939 -0.00288368 0)
(-0.00720047 -0.0032297 0)
(-0.00875977 -0.0035342 0)
(-0.0103495 -0.00378086 0)
(-0.0119279 -0.00395087 0)
(-0.0134502 -0.00402501 0)
(-0.0148703 -0.00398564 0)
(-0.0161431 -0.00381839 0)
(-0.0172263 -0.00351337 0)
(-0.0180828 -0.00306591 0)
(-0.0186817 -0.00247681 0)
(-0.018999 -0.00175291 0)
(-1.505e-05 -9.47684e-05 0)
(-0.000299501 -0.000423126 0)
(-0.000845636 -0.000763779 0)
(-0.00161056 -0.00107571 0)
(-0.0025554 -0.00136188 0)
(-0.00365176 -0.00163006 0)
(-0.00487442 -0.00188378 0)
(-0.00619839 -0.00212106 0)
(-0.00759657 -0.0023351 0)
(-0.00903837 -0.0025156 0)
(-0.0104894 -0.00265021 0)
(-0.0119121 -0.00272598 0)
(-0.0132668 -0.00273064 0)
(-0.014514 -0.00265377 0)
(-0.0156155 -0.00248766 0)
(-0.0165368 -0.00222792 0)
(-0.0172481 -0.00187361 0)
(-0.0177266 -0.00142774 0)
(-9.56752e-07 -3.34424e-05 0)
(-0.000197278 -0.000231799 0)
(-0.000620682 -0.000445327 0)
(-0.00123482 -0.000638857 0)
(-0.00200612 -0.000815051 0)
(-0.00290955 -0.000980138 0)
(-0.00392438 -0.00113745 0)
(-0.00503124 -0.00128657 0)
(-0.00620955 -0.00142385 0)
(-0.00743597 -0.00154325 0)
(-0.00868378 -0.0016373 0)
(-0.00992316 -0.00169794 0)
(-0.0111221 -0.00171733 0)
(-0.0122476 -0.00168859 0)
(-0.0132674 -0.00160637 0)
(-0.0141513 -0.0014672 0)
(-0.0148727 -0.0012697 0)
(-0.0154108 -0.0010147 0)
(1.04495e-05 -3.6122e-06 0)
(-0.000109061 -0.000112704 0)
(-0.000415973 -0.000232929 0)
(-0.000878669 -0.000340104 0)
(-0.00146873 -0.00043674 0)
(-0.00216519 -0.000527194 0)
(-0.00295205 -0.00061394 0)
(-0.00381529 -0.000697162 0)
(-0.00474039 -0.000775113 0)
(-0.00571073 -0.000844629 0)
(-0.00670692 -0.000901651 0)
(-0.00770685 -0.000941708 0)
(-0.00868625 -0.00096036 0)
(-0.00961965 -0.000953598 0)
(-0.0104815 -0.00091816 0)
(-0.0112475 -0.000851773 0)
(-0.0118953 -0.00075325 0)
(-0.0124076 -0.000622454 0)
(1.72636e-05 5.99769e-06 0)
(-4.29216e-05 -4.52027e-05 0)
(-0.000245542 -0.000101771 0)
(-0.00056356 -0.000151089 0)
(-0.000974503 -0.000195057 0)
(-0.00146242 -0.000236154 0)
(-0.00201612 -0.000275812 0)
(-0.00262648 -0.00031429 0)
(-0.00328422 -0.000350895 0)
(-0.00397867 -0.00038424 0)
(-0.00469706 -0.000412492 0)
(-0.00542452 -0.000433587 0)
(-0.00614437 -0.000445441 0)
(-0.00683874 -0.000446123 0)
(-0.00748941 -0.000434011 0)
(-0.00807852 -0.000407903 0)
(-0.00858941 -0.000367068 0)
(-0.00900911 -0.000311093 0)
(1.75383e-05 5.44167e-06 0)
(-3.3684e-06 -1.23073e-05 0)
(-0.000115713 -3.11054e-05 0)
(-0.000299202 -4.70004e-05 0)
(-0.000538855 -6.09609e-05 0)
(-0.00082461 -7.39864e-05 0)
(-0.00114999 -8.66461e-05 0)
(-0.00151008 -9.90834e-05 0)
(-0.0019 -0.00011111 0)
(-0.00231404 -0.000122302 0)
(-0.00274522 -0.000132076 0)
(-0.00318517 -0.000139766 0)
(-0.00362434 -0.000144686 0)
(-0.00405227 -0.000146185 0)
(-0.00445809 -0.000143701 0)
(-0.00483099 -0.000136792 0)
(-0.00516054 -0.00012514 0)
(-0.00543861 -0.000108396 0)
(9.40935e-06 1.92395e-06 0)
(7.97199e-06 -5.92019e-07 0)
(-2.72861e-05 -2.14976e-06 0)
(-8.73678e-05 -3.37796e-06 0)
(-0.00016658 -4.4104e-06 0)
(-0.000261338 -5.37045e-06 0)
(-0.000369552 -6.32059e-06 0)
(-0.000489762 -7.28153e-06 0)
(-0.00062057 -8.24422e-06 0)
(-0.000760294 -9.17915e-06 0)
(-0.0009068 -1.00425e-05 0)
(-0.00105745 -1.07825e-05 0)
(-0.00120916 -1.13433e-05 0)
(-0.00135846 -1.16703e-05 0)
(-0.00150169 -1.17142e-05 0)
(-0.00163515 -1.14386e-05 0)
(-0.0017551 -1.07799e-05 0)
(-0.00185861 -9.65232e-06 0)
(1.44636e-05 -3.3452e-05 7.35195e-24)
(0.00010547 -7.97811e-05 -9.78248e-24)
(0.000254163 -0.000107504 0)
(0.000436721 -0.000119352 0)
(0.000623411 -0.000119877 0)
(0.000792751 -0.000112552 8.02155e-24)
(0.000929637 -0.000100117 0)
(0.0010233 -8.47327e-05 0)
(0.0010663 -6.79917e-05 0)
(0.00105375 -5.0983e-05 0)
(0.000982721 -3.43556e-05 6.69856e-25)
(0.000851602 -1.84466e-05 0)
(0.000659544 -3.34946e-06 0)
(0.000406069 1.10234e-05 0)
(9.07541e-05 2.48813e-05 0)
(-0.000287002 3.85102e-05 1.45134e-23)
(-0.000728111 5.2236e-05 0)
(-0.00123383 6.63914e-05 0)
(-0.00180576 8.12852e-05 0)
(-0.0024457 9.71785e-05 0)
(-0.00315558 0.000114269 0)
(-0.00393719 0.000132679 0)
(-0.00479197 0.00015245 0)
(-0.00572079 0.000173536 4.34586e-23)
(-0.00672369 0.000195805 -4.72575e-23)
(-0.00779963 0.000219037 5.09645e-23)
(-0.00894623 0.000242928 5.45195e-23)
(-0.0101596 0.000267092 0)
(-0.0114342 0.000291064 0)
(-0.0127626 0.000314305 -6.35549e-23)
(-0.0141355 0.000336213 -6.57516e-23)
(-0.0155415 0.000356133 0)
(-0.0169673 0.000373368 0)
(-0.018398 0.000387204 -6.86342e-23)
(-0.0198164 0.000396929 0)
(-0.0212044 0.000401863 0)
(-0.0225423 0.000401384 6.40627e-23)
(-0.0238096 0.000394959 0)
(-0.0249854 0.000382176 5.5857e-23)
(-0.0260489 0.000362772 1.00116e-22)
(-0.0269795 0.000336658 0)
(-0.0277579 0.000303934 0)
(-0.0283661 0.000264892 0)
(-0.0287882 0.000220008 0)
(-0.0290107 0.000169996 0)
(-0.0290225 0.000115878 -1.59296e-23)
(-0.0288156 5.83439e-05 -4.17788e-23)
(-0.0283859 -1.46522e-06 -6.88477e-23)
(-0.0277326 -6.22573e-05 0)
(-0.0268581 -0.000122793 1.25295e-22)
(-0.0257682 -0.000181886 0)
(-0.024472 -0.000238425 -1.82315e-22)
(-0.022981 -0.00029141 -2.10041e-22)
(-0.0213096 -0.00033999 0)
(-0.019474 -0.000383487 0)
(-0.0174917 -0.00042141 0)
(-0.0153814 -0.000453456 -3.06462e-22)
(-0.0131625 -0.000479498 0)
(-0.0108544 -0.000499563 0)
(-0.00847621 -0.0005138 0)
(-0.00604677 -0.000522442 0)
(-0.00358436 -0.000525731 0)
(-0.00110689 -0.000523769 0)
(0.00136824 -0.000516405 0)
(0.00382467 -0.000503838 0)
(0.00624516 -0.000486603 3.50033e-22)
(0.00861224 -0.000464968 0)
(0.0109082 -0.000438973 0)
(0.0131144 -0.000408566 -2.96996e-22)
(0.0152115 -0.000373671 -2.73549e-22)
(0.0171787 -0.000334238 0)
(0.0189945 -0.000290299 2.19747e-22)
(0.0206363 -0.000242022 -1.90123e-22)
(0.0220814 -0.00018976 0)
(0.0233072 -0.000134099 1.27556e-22)
(0.0242924 -7.58726e-05 0)
(0.0250182 -1.62046e-05 0)
(0.0254689 4.33663e-05 -3.27726e-23)
(0.0256323 0.000101129 0)
(0.0255037 0.000157038 -2.49902e-23)
(0.0250852 0.00020796 0)
(0.024385 0.000252336 7.38648e-23)
(0.0234194 0.000288951 9.4036e-23)
(0.022213 0.00031674 1.11031e-22)
(0.0207977 0.000335008 2.49455e-22)
(0.0192116 0.000343526 -2.7023e-22)
(0.0174979 0.000342562 0)
(0.0157029 0.000332864 0)
(0.0138735 0.000315592 0)
(0.0120552 0.000292219 -2.93955e-22)
(0.0102898 0.000264398 -2.88163e-22)
(0.00861374 0.000233822 2.7926e-22)
(0.00705628 0.000202087 0)
(0.00563919 0.00017058 -2.5536e-22)
(0.00437633 0.00014041 -2.41818e-22)
(0.00327417 0.000112388 -2.28033e-22)
(0.00233249 8.70466e-05 0)
(0.00154541 6.47122e-05 0)
(0.000902286 4.55766e-05 0)
(0.000388655 2.97594e-05 -1.7864e-22)
(-1.29303e-05 1.73317e-05 0)
(-0.000321983 8.29698e-06 0)
(-0.000558971 2.53321e-06 1.53433e-22)
(-0.000744044 -2.55685e-07 0)
(-0.00089569 -5.43251e-07 0)
(-0.00102956 1.05786e-06 1.39488e-22)
(-0.00115763 3.86502e-06 0)
(-0.00128787 7.21482e-06 0)
(-0.00142438 1.05394e-05 -1.33133e-22)
(-0.00156794 1.34126e-05 -1.31833e-22)
(-0.00171685 1.55627e-05 0)
(-0.00186772 1.68583e-05 1.29513e-22)
(-0.00201631 1.72793e-05 0)
(-0.00215814 1.68841e-05 -1.26876e-22)
(-0.00228897 1.57792e-05 0)
(-0.00240513 1.40969e-05 -1.23464e-22)
(-0.00250367 1.19787e-05 -1.21423e-22)
(-0.00258252 9.56542e-06 0)
(-0.00264044 6.98928e-06 0)
(-0.00267703 4.36577e-06 0)
(-0.00269271 1.81125e-06 0)
(-0.00268845 -5.49252e-07 0)
(-0.0026658 -2.70005e-06 0)
(-0.00262684 -4.57995e-06 0)
(-0.00257387 -6.14715e-06 -1.00167e-22)
(-0.00250938 -7.38692e-06 9.74573e-23)
(-0.00243591 -8.30092e-06 0)
(-0.00235596 -8.90403e-06 0)
(-0.00227191 -9.22151e-06 0)
(-0.00218591 -9.28608e-06 0)
(-0.00209988 -9.13499e-06 1.71525e-22)
(-0.00201548 -8.8073e-06 0)
(-0.00193406 -8.34179e-06 -1.64203e-22)
(-0.00185668 -7.77508e-06 1.60957e-22)
(-0.00178416 -7.14051e-06 0)
(-0.00171704 -6.46724e-06 0)
(-0.00165565 -5.77996e-06 0)
(-0.00160015 -5.09876e-06 -1.50222e-22)
(-0.00155051 -4.43938e-06 -1.4797e-22)
(-0.00150661 -3.81355e-06 0)
(-0.00146819 -3.22949e-06 -1.43804e-22)
(-0.00143496 -2.69238e-06 -1.41845e-22)
(-0.00140656 -2.20494e-06 1.39942e-22)
(-0.0013826 -1.76791e-06 0)
(-0.00136267 -1.38051e-06 0)
(-0.00134638 -1.04086e-06 1.34399e-22)
(-0.00133332 -7.46281e-07 0)
(-0.00132312 -4.93567e-07 0)
(-0.00131541 -2.79211e-07 0)
(-0.00130986 -9.95335e-08 0)
(-0.00130614 4.92283e-08 -1.25049e-22)
(-0.00130398 1.70606e-07 -1.23102e-22)
(-0.0013031 2.66093e-07 0)
(-0.00130328 3.35481e-07 -1.19107e-22)
(-0.00130431 3.76757e-07 0)
(-0.00130602 3.85785e-07 0)
(-0.00130824 4.01331e-07 -1.12858e-22)
(-0.00131083 4.20894e-07 0)
(-0.0013137 4.35527e-07 -1.08529e-22)
(-0.00131674 4.43196e-07 0)
(-0.00131992 4.46023e-07 0)
(-0.0013232 4.47896e-07 -1.01825e-22)
(-0.00132658 4.5194e-07 0)
(-0.00133007 4.60551e-07 -9.72319e-23)
(-0.0013337 4.75154e-07 0)
(-0.00133751 4.95834e-07 0)
(-0.00134152 5.20942e-07 0)
(-0.00134572 5.46634e-07 8.77404e-23)
(-0.00135005 5.66279e-07 0)
(-0.00135433 5.6917e-07 -8.27913e-23)
(-0.00135825 5.39162e-07 0)
(-0.00136132 4.69966e-07 0)
(-0.00136282 3.89425e-07 0)
(-0.00136172 1.87057e-07 0)
(-0.00135672 -1.40658e-07 0)
(-0.00134603 -6.21982e-07 0)
(-0.0013269 -1.38735e-06 0)
(-0.0012948 -3.22549e-06 1.21425e-22)
(-0.00125229 -3.28207e-06 0)
(-0.0011088 -2.2406e-05 0)
(2.42136e-05 -0.000207148 -2.47861e-23)
(0.000182364 -0.000483975 3.33273e-23)
(0.000409896 -0.000636221 0)
(0.000663537 -0.000681585 -2.21839e-23)
(0.000893831 -0.000641221 0)
(0.00106324 -0.000535573 -8.60549e-24)
(0.00114332 -0.000382464 1.66435e-23)
(0.00111216 -0.0001966 1.37481e-23)
(0.000953005 1.04329e-05 0)
(0.000653444 0.000229985 6.56696e-24)
(0.000204384 0.000455911 -7.2218e-25)
(-0.0004008 0.000684185 0)
(-0.00116702 0.000912513 0)
(-0.00209808 0.00113994 0)
(-0.00319724 0.00136645 0)
(-0.00446746 0.00159268 -1.55574e-23)
(-0.00591163 0.00181953 0)
(-0.00753256 0.0020479 3.70584e-23)
(-0.00933287 0.00227846 0)
(-0.0113148 0.00251143 0)
(-0.0134795 0.00274639 -5.82485e-23)
(-0.0158273 0.00298224 0)
(-0.0183563 0.00321708 7.32623e-23)
(-0.0210623 0.00344825 -4.58702e-23)
(-0.0239386 0.00367232 4.97453e-23)
(-0.0269746 0.00388518 -5.34965e-23)
(-0.0301565 0.00408217 -5.70618e-23)
(-0.033466 0.00425815 0)
(-0.0368807 0.00440766 0)
(-0.0403737 0.0045251 6.59274e-23)
(-0.0439142 0.0046049 -5.83475e-23)
(-0.0474669 0.00464172 0)
(-0.0509931 0.00463063 0)
(-0.0544509 0.00456731 7.04278e-23)
(-0.0577961 0.00444827 0)
(-0.0609825 0.00427104 0)
(-0.0639637 0.00403429 -6.53558e-23)
(-0.066693 0.00373798 0)
(-0.0691253 0.00338344 5.56511e-23)
(-0.0712176 0.00297343 -1.01869e-22)
(-0.0729303 0.00251208 0)
(-0.0742277 0.00200485 0)
(-0.0750794 0.00145835 -1.13055e-22)
(-0.0754603 0.00088017 -7.36506e-23)
(-0.0753514 0.000278834 -2.99562e-23)
(-0.0747407 -0.000336437 -1.34629e-24)
(-0.0736232 -0.000956293 4.28071e-23)
(-0.0720002 -0.00157108 1.93263e-22)
(-0.0698799 -0.00217146 -1.788e-22)
(-0.067277 -0.00274873 -1.29369e-22)
(-0.0642116 -0.003295 0)
(-0.060709 -0.00380339 1.89621e-22)
(-0.0567992 -0.00426818 -1.9356e-22)
(-0.0525155 -0.00468495 0)
(-0.047894 -0.00505059 0)
(-0.0429726 -0.0053633 0)
(-0.0377906 -0.00562254 3.26785e-22)
(-0.0323871 -0.00582881 0)
(-0.0268014 -0.00598351 -7.05728e-22)
(-0.0210715 -0.00608869 0)
(-0.0152345 -0.00614673 -7.63393e-22)
(-0.00932606 -0.00616005 0)
(-0.00338107 -0.00613066 7.9284e-22)
(0.00256576 -0.00605995 0)
(0.00848243 -0.0059491 -7.6814e-22)
(0.0143344 -0.00579913 3.55168e-22)
(0.0200868 -0.00561037 0)
(0.0257037 -0.00538228 6.64224e-22)
(0.0311469 -0.00511363 3.22185e-22)
(0.0363758 -0.00480284 2.95547e-22)
(0.0413461 -0.00444831 0)
(0.0460106 -0.00404881 2.12141e-22)
(0.0503191 -0.00360388 2.03371e-22)
(0.0542187 -0.00311428 0)
(0.0576553 -0.00258235 -1.35836e-22)
(0.0605747 -0.00201241 1.85988e-22)
(0.0629247 -0.001411 0)
(0.0646571 -0.000787104 3.48063e-23)
(0.0657315 -0.000152117 0)
(0.066116 0.000481565 8.80234e-23)
(0.0657907 0.00109824 0)
(0.0647533 0.00168181 -2.38603e-22)
(0.0630181 0.00221633 -1.00177e-22)
(0.0606184 0.00268645 1.15669e-22)
(0.0576073 0.00307853 2.55692e-22)
(0.0540579 0.00338172 -2.73585e-22)
(0.0500605 0.00358886 0)
(0.0457202 0.00369725 0)
(0.0411518 0.00370886 0)
(0.0364744 0.00363033 9.33967e-22)
(0.0318056 0.00347238 3.17341e-22)
(0.0272548 0.00324891 -3.09266e-22)
(0.0229182 0.00297573 0)
(0.0188751 0.00266934 -2.53974e-22)
(0.0151843 0.00234562 2.72121e-22)
(0.0118842 0.00201894 2.57829e-22)
(0.00899302 0.00170164 0)
(0.00651051 0.00140379 0)
(0.00442025 0.00113337 0)
(0.00269238 0.000896384 2.04987e-22)
(0.00128643 0.000696912 0)
(0.00015442 0.000537002 -3.59416e-22)
(-0.000755608 0.000416416 -5.22353e-22)
(-0.00149591 0.000332519 3.33335e-22)
(-0.00211524 0.000280491 0)
(-0.00265573 0.000253892 1.55512e-22)
(-0.00315062 0.000245443 0)
(-0.00362331 0.000247917 3.06838e-22)
(-0.00408751 0.000254915 -1.4977e-22)
(-0.00454852 0.000261372 -1.48617e-22)
(-0.00500501 0.000263754 0)
(-0.00545109 0.000260005 -4.46157e-22)
(-0.00587825 0.000249311 2.93919e-22)
(-0.006277 0.000231807 1.46829e-22)
(-0.00663814 0.000208276 0)
(-0.00695362 0.000179896 1.4301e-22)
(-0.0072171 0.000148041 4.20753e-22)
(-0.00742426 0.000114136 0)
(-0.00757285 7.95556e-05 2.70235e-22)
(-0.00766267 4.55446e-05 2.64738e-22)
(-0.00769545 1.3185e-05 2.58942e-22)
(-0.00767443 -1.64525e-05 0)
(-0.00760423 -4.28809e-05 0)
(-0.00749054 -6.55955e-05 0)
(-0.00733972 -8.43159e-05 -1.17685e-22)
(-0.00715849 -9.89666e-05 -1.13694e-22)
(-0.00695367 -0.00010964 0)
(-0.0067319 -0.000116566 -2.17091e-22)
(-0.00649945 -0.000120078 -2.11819e-22)
(-0.00626204 -0.000120582 0)
(-0.00602475 -0.000118525 -2.01007e-22)
(-0.00579192 -0.000114368 -3.9577e-22)
(-0.00556714 -0.000108565 1.92776e-22)
(-0.00535326 -0.000101543 1.91191e-22)
(-0.00515243 -9.36906e-05 0)
(-0.00496614 -8.53485e-05 0)
(-0.00479531 -7.68076e-05 0)
(-0.00464036 -6.83069e-05 1.77125e-22)
(-0.0045013 -6.00363e-05 -1.75858e-22)
(-0.0043778 -5.21399e-05 -3.45563e-22)
(-0.00426926 -4.47213e-05 1.69967e-22)
(-0.00417489 -3.78491e-05 -1.68591e-22)
(-0.00409376 -3.1563e-05 -1.65655e-22)
(-0.00402485 -2.58788e-05 0)
(-0.0039671 -2.07937e-05 0)
(-0.00391943 -1.6291e-05 1.59822e-22)
(-0.00388079 -1.23439e-05 0)
(-0.00385014 -8.91828e-06 0)
(-0.00382651 -5.97596e-06 -3.06542e-22)
(-0.00380897 -3.4762e-06 0)
(-0.00379668 -1.37746e-06 -1.48941e-22)
(-0.00378883 3.6121e-07 1.4665e-22)
(-0.00378472 1.77763e-06 0)
(-0.0037837 2.90622e-06 -1.42061e-22)
(-0.00378519 3.77846e-06 0)
(-0.00378868 4.42321e-06 0)
(-0.00379372 4.90817e-06 1.34895e-22)
(-0.00379995 5.2631e-06 -2.64747e-22)
(-0.00380706 5.51524e-06 1.29892e-22)
(-0.0038148 5.68268e-06 0)
(-0.003823 5.79506e-06 0)
(-0.00383157 5.88213e-06 -1.22012e-22)
(-0.00384044 5.96997e-06 0)
(-0.00384963 6.07854e-06 -1.16652e-22)
(-0.00385919 6.21788e-06 0)
(-0.00386916 6.38326e-06 0)
(-0.00387954 6.54958e-06 0)
(-0.00389023 6.66557e-06 -1.05634e-22)
(-0.00390095 6.64836e-06 0)
(-0.00391114 6.37878e-06 9.98068e-23)
(-0.00391985 5.69858e-06 0)
(-0.00392562 4.43483e-06 0)
(-0.0039264 2.40258e-06 -1.81136e-22)
(-0.00391942 -7.69708e-07 1.74704e-22)
(-0.00390098 -5.40042e-06 0)
(-0.00386629 -1.19913e-05 0)
(-0.00380849 -2.15548e-05 0)
(-0.00371765 -3.63556e-05 -4.4282e-22)
(-0.00359493 -6.005e-05 0)
(-0.00330534 -0.000117907 2.66528e-22)
(2.11487e-05 -0.000404362 -4.06599e-24)
(0.000143976 -0.000890567 -5.06428e-23)
(0.000289494 -0.00110633 0)
(0.000408922 -0.0011014 4.85883e-23)
(0.000450602 -0.00092088 0)
(0.000374758 -0.000604545 0)
(0.000150227 -0.000186348 4.00174e-24)
(-0.000248095 0.000305593 -1.37621e-23)
(-0.000840456 0.000848784 -1.47259e-23)
(-0.00164311 0.00142581 -6.54798e-24)
(-0.00266906 0.00202381 0)
(-0.00392874 0.00263379 0)
(-0.00543067 0.00324996 -1.37889e-24)
(-0.00718184 0.00386897 -1.23882e-23)
(-0.00918809 0.00448923 2.26266e-23)
(-0.0114542 0.00511023 0)
(-0.0139841 0.00573186 4.49163e-23)
(-0.0167803 0.0063538 -3.63361e-23)
(-0.0198438 0.00697503 0)
(-0.023174 0.00759336 8.27604e-23)
(-0.0267673 0.0082051 5.66771e-23)
(-0.0306173 0.00880491 -1.10589e-22)
(-0.0347134 0.00938568 -7.0893e-23)
(-0.039041 0.0099386 0)
(-0.0435801 0.0104533 1.54696e-22)
(-0.0483055 0.0109183 1.69488e-22)
(-0.0531862 0.0113209 0)
(-0.0581855 0.0116481 1.9803e-22)
(-0.0632611 0.0118868 0)
(-0.0683651 0.0120243 2.23458e-22)
(-0.0734451 0.0120488 1.19789e-22)
(-0.0784449 0.0119498 0)
(-0.083305 0.0117189 0)
(-0.0879641 0.0113496 0)
(-0.0923604 0.0108383 0)
(-0.0964324 0.0101843 0)
(-0.100121 0.00938972 0)
(-0.103369 0.00846006 2.40977e-22)
(-0.106125 0.00740375 -3.33967e-22)
(-0.108342 0.00623219 0)
(-0.10998 0.00495945 0)
(-0.111005 0.00360184 0)
(-0.111392 0.00217753 -2.40456e-23)
(-0.111121 0.000706101 6.9813e-23)
(-0.110184 -0.000791694 8.34918e-23)
(-0.108579 -0.00229458 5.81707e-24)
(-0.106313 -0.00378155 3.67689e-23)
(-0.103399 -0.00523265 -1.16461e-22)
(-0.0998577 -0.00662928 2.94152e-23)
(-0.0957162 -0.00795458 -1.95735e-22)
(-0.0910069 -0.00919379 0)
(-0.085767 -0.0103346 -3.08711e-22)
(-0.0800377 -0.0113672 3.02618e-23)
(-0.0738629 -0.0122846 0)
(-0.0672887 -0.0130826 0)
(-0.0603622 -0.0137595 5.24992e-22)
(-0.0531307 -0.0143159 0)
(-0.045641 -0.0147545 0)
(-0.0379387 -0.0150795 -6.23203e-22)
(-0.0300679 -0.0152963 -1.37515e-21)
(-0.0220708 -0.0154107 7.46376e-22)
(-0.0139877 -0.0154285 0)
(-0.00585757 -0.0153548 -7.80373e-22)
(0.00228084 -0.0151933 0)
(0.0103925 -0.0149466 -6.93659e-22)
(0.0184393 -0.0146154 -7.27039e-22)
(0.0263817 -0.0141993 1.32102e-21)
(0.0341789 -0.0136961 5.89516e-22)
(0.041787 -0.0131019 0)
(0.0491579 -0.0124122 -1.04132e-21)
(0.0562389 -0.0116217 0)
(0.0629722 -0.0107258 -1.24552e-21)
(0.0692947 -0.00972097 -6.90069e-22)
(0.0751386 -0.00860597 -5.64264e-22)
(0.0804317 -0.00738263 4.37012e-22)
(0.0850992 -0.00605671 -4.88697e-22)
(0.089065 -0.0046387 0)
(0.0922548 -0.00314437 0)
(0.0945986 -0.00159506 -4.8609e-23)
(0.0960343 -1.85108e-05 -2.13572e-22)
(0.0965103 0.00155294 0)
(0.0959925 0.00308241 1.52746e-22)
(0.0944679 0.00453052 0)
(0.0919472 0.00585702 -6.87899e-22)
(0.0884689 0.00702292 1.30727e-23)
(0.084101 0.0079932 -7.02491e-24)
(0.0789414 0.00873961 5.65246e-22)
(0.0731163 0.00924318 0)