/*--------------------------------*- C++ -*----------------------------------*\
  =========                 |
  \\      /  F ield         | OpenFOAM: The Open Source CFD Toolbox
   \\    /   O peration     | Website:  https://openfoam.org
    \\  /    A nd           | Version:  8
     \\/     M anipulation  |
\*---------------------------------------------------------------------------*/
FoamFile
{
    version     2.0;
    format      ascii;
    class       volScalarField;
    location    "0.24";
    object      p;
}
// * * * * * * * * * * * * * * * * * * * * * * * * * * * * * * * * * * * * * //

dimensions      [0 2 -2 0 0 0 0];

internalField   nonuniform List<scalar> 
12225
(
-1.72387
-1.84297
-1.8258
-1.81289
-1.80228
-1.79037
-1.77836
-1.76645
-1.75465
-1.74302
-1.73158
-1.72035
-1.70935
-1.69859
-1.68813
-1.67808
-1.66906
-1.66294
-1.74739
-1.83952
-1.82422
-1.81188
-1.80161
-1.78984
-1.77791
-1.76606
-1.7543
-1.74269
-1.73126
-1.72004
-1.70903
-1.69827
-1.68779
-1.67768
-1.66827
-1.6605
-1.76993
-1.83531
-1.82231
-1.81071
-1.80081
-1.78922
-1.77738
-1.7656
-1.75389
-1.7423
-1.73089
-1.71967
-1.70867
-1.69789
-1.68737
-1.67716
-1.66734
-1.65846
-1.78719
-1.83133
-1.82073
-1.80972
-1.80006
-1.78865
-1.77689
-1.76518
-1.75351
-1.74195
-1.73056
-1.71935
-1.70834
-1.69754
-1.68698
-1.67666
-1.66658
-1.65717
-1.80077
-1.82832
-1.81944
-1.80893
-1.79938
-1.78814
-1.77646
-1.76481
-1.75318
-1.74166
-1.73029
-1.71909
-1.70808
-1.69727
-1.68667
-1.67629
-1.66609
-1.65651
-1.81205
-1.8266
-1.81836
-1.80831
-1.79877
-1.78769
-1.7761
-1.7645
-1.75294
-1.74145
-1.73011
-1.71893
-1.70794
-1.69714
-1.68654
-1.67615
-1.66598
-1.65646
-1.82146
-1.82615
-1.81754
-1.80783
-1.79826
-1.7873
-1.7758
-1.76428
-1.75278
-1.74136
-1.73007
-1.71893
-1.70798
-1.69722
-1.68667
-1.67636
-1.66634
-1.65707
-1.82925
-1.82672
-1.81708
-1.80752
-1.79786
-1.78698
-1.77558
-1.76415
-1.75275
-1.7414
-1.73019
-1.71914
-1.70826
-1.6976
-1.68717
-1.67703
-1.66728
-1.65838
-1.83566
-1.82804
-1.817
-1.80738
-1.7976
-1.78675
-1.77545
-1.76413
-1.75284
-1.74161
-1.73052
-1.71959
-1.70885
-1.69835
-1.68812
-1.67825
-1.66885
-1.66037
-1.84092
-1.82985
-1.8173
-1.80744
-1.79752
-1.78665
-1.77543
-1.76422
-1.75306
-1.74199
-1.73106
-1.72031
-1.70977
-1.6995
-1.68955
-1.68003
-1.67105
-1.663
-1.84528
-1.83192
-1.81793
-1.80769
-1.7976
-1.78669
-1.77553
-1.76443
-1.75343
-1.74254
-1.73181
-1.72129
-1.71102
-1.70104
-1.69144
-1.68231
-1.67378
-1.66616
-1.84865
-1.83392
-1.81876
-1.80806
-1.79782
-1.78686
-1.77572
-1.76473
-1.75388
-1.74318
-1.73266
-1.72239
-1.7124
-1.70275
-1.6935
-1.68476
-1.67664
-1.66939
-1.85146
-1.83595
-1.81978
-1.80855
-1.79818
-1.78718
-1.77606
-1.76515
-1.75445
-1.74394
-1.73366
-1.72365
-1.71395
-1.70463
-1.69575
-1.6874
-1.67968
-1.67275
-1.85416
-1.83822
-1.82113
-1.80924
-1.79872
-1.78772
-1.77661
-1.76579
-1.75526
-1.74497
-1.73495
-1.72525
-1.7159
-1.70697
-1.6985
-1.69057
-1.68326
-1.67667
-1.85676
-1.84062
-1.82277
-1.81019
-1.7995
-1.78851
-1.77743
-1.76669
-1.75634
-1.7463
-1.73657
-1.72721
-1.71824
-1.70972
-1.70169
-1.69419
-1.68728
-1.68102
-1.85922
-1.84303
-1.82464
-1.81144
-1.80056
-1.7896
-1.77857
-1.76793
-1.75776
-1.74798
-1.73856
-1.72955
-1.72097
-1.71285
-1.70523
-1.69813
-1.69159
-1.68563
-1.8615
-1.84533
-1.82662
-1.81294
-1.80191
-1.79101
-1.78008
-1.76956
-1.75959
-1.75007
-1.74097
-1.7323
-1.72408
-1.71633
-1.70908
-1.70233
-1.6961
-1.69038
-1.86343
-1.84734
-1.82851
-1.8146
-1.80353
-1.79276
-1.78199
-1.77165
-1.76189
-1.75265
-1.74385
-1.73549
-1.7276
-1.72018
-1.71323
-1.70676
-1.70076
-1.69524
-1.86466
-1.8487
-1.83
-1.8162
-1.80531
-1.79478
-1.78425
-1.77416
-1.76468
-1.75572
-1.74722
-1.73915
-1.73154
-1.72438
-1.71767
-1.7114
-1.70556
-1.70014
-1.8645
-1.84864
-1.8304
-1.81723
-1.80679
-1.79657
-1.78633
-1.77654
-1.76733
-1.75861
-1.75032
-1.74246
-1.73503
-1.72803
-1.72145
-1.71528
-1.7095
-1.70412
-1.86315
-1.84757
-1.8301
-1.81778
-1.80787
-1.79796
-1.78802
-1.77849
-1.7695
-1.76096
-1.75282
-1.74508
-1.73776
-1.73084
-1.72432
-1.71819
-1.71243
-1.70704
-1.86062
-1.84568
-1.82949
-1.81827
-1.80891
-1.79932
-1.78967
-1.78039
-1.77158
-1.76316
-1.75511
-1.74745
-1.74018
-1.73329
-1.72679
-1.72064
-1.71486
-1.70941
-1.85672
-1.84316
-1.82895
-1.81893
-1.81003
-1.80074
-1.79135
-1.78227
-1.77356
-1.7652
-1.75719
-1.74955
-1.74228
-1.73538
-1.72884
-1.72266
-1.71682
-1.7113
-1.8511
-1.84033
-1.82888
-1.81989
-1.81128
-1.80224
-1.79305
-1.78405
-1.77536
-1.76699
-1.75896
-1.75128
-1.74396
-1.73702
-1.73043
-1.72419
-1.71828
-1.71268
-1.84326
-1.8377
-1.82959
-1.82113
-1.81263
-1.80376
-1.79462
-1.78558
-1.77683
-1.76839
-1.76028
-1.75254
-1.74517
-1.73816
-1.73151
-1.72522
-1.71926
-1.71361
-1.8327
-1.83613
-1.83119
-1.8225
-1.81398
-1.80514
-1.7959
-1.78675
-1.77789
-1.76936
-1.76117
-1.75336
-1.74593
-1.73888
-1.73219
-1.72586
-1.71987
-1.71418
-1.81876
-1.83664
-1.83356
-1.82386
-1.81526
-1.80628
-1.79686
-1.78757
-1.7786
-1.76999
-1.76174
-1.75388
-1.7464
-1.73931
-1.73259
-1.72624
-1.72023
-1.71453
-1.79954
-1.83953
-1.83642
-1.82529
-1.81644
-1.8072
-1.79757
-1.78817
-1.77911
-1.77042
-1.76212
-1.75422
-1.74671
-1.73959
-1.73285
-1.72647
-1.72044
-1.71474
-1.77249
-1.8436
-1.83946
-1.82685
-1.81754
-1.80797
-1.79818
-1.78866
-1.77952
-1.77077
-1.76241
-1.75447
-1.74693
-1.73978
-1.73302
-1.72662
-1.72058
-1.71486
-1.74353
-1.84694
-1.84173
-1.82811
-1.81837
-1.80854
-1.79862
-1.78902
-1.77981
-1.771
-1.76261
-1.75464
-1.74707
-1.7399
-1.73312
-1.7267
-1.72065
-1.71493
-1.61192
-1.61177
-1.61168
-1.61172
-1.61192
-1.61229
-1.61282
-1.61352
-1.61437
-1.61536
-1.61648
-1.61772
-1.61907
-1.62053
-1.62209
-1.62375
-1.62551
-1.62737
-1.62934
-1.63143
-1.63365
-1.63601
-1.63852
-1.6412
-1.64405
-1.64709
-1.65032
-1.65374
-1.65734
-1.66111
-1.66502
-1.66904
-1.67313
-1.67724
-1.68128
-1.68519
-1.68887
-1.69223
-1.69515
-1.69752
-1.69924
-1.70018
-1.70024
-1.69931
-1.6973
-1.69413
-1.68973
-1.68405
-1.67707
-1.66876
-1.65913
-1.64821
-1.63604
-1.62269
-1.60823
-1.59277
-1.57643
-1.55933
-1.54162
-1.52347
-1.50503
-1.48649
-1.46801
-1.44975
-1.43188
-1.41452
-1.39781
-1.38186
-1.36673
-1.35249
-1.33917
-1.32678
-1.31532
-1.30476
-1.29506
-1.28616
-1.27801
-1.27054
-1.26367
-1.25735
-1.25149
-1.24604
-1.24093
-1.2361
-1.23151
-1.22709
-1.22281
-1.21863
-1.21452
-1.21044
-1.20638
-1.2023
-1.19819
-1.19404
-1.18983
-1.18554
-1.18118
-1.17672
-1.17217
-1.16753
-1.16278
-1.15793
-1.15297
-1.1479
-1.14272
-1.13743
-1.13203
-1.12652
-1.12091
-1.11518
-1.10935
-1.10342
-1.09738
-1.09124
-1.08501
-1.07867
-1.07224
-1.06571
-1.0591
-1.05239
-1.0456
-1.03872
-1.03175
-1.02471
-1.01758
-1.01038
-1.00311
-0.995754
-0.98833
-0.980835
-0.97327
-0.965636
-0.957934
-0.950165
-0.942329
-0.934428
-0.926461
-0.918429
-0.910333
-0.902172
-0.893947
-0.885658
-0.877304
-0.868886
-0.860404
-0.851857
-0.843245
-0.834567
-0.825824
-0.817014
-0.808138
-0.799195
-0.790184
-0.781104
-0.771956
-0.762738
-0.753451
-0.744093
-0.734664
-0.725164
-0.715591
-0.705946
-0.696229
-0.686438
-0.676574
-0.666636
-0.656624
-0.646539
-0.636381
-0.62615
-0.615847
-0.605475
-0.595034
-0.584528
-0.57396
-0.563337
-0.552666
-0.541961
-0.531221
-0.520588
-1.61208
-1.6119
-1.6118
-1.61185
-1.61207
-1.61245
-1.61298
-1.61366
-1.61449
-1.61545
-1.61653
-1.61771
-1.61901
-1.62039
-1.62188
-1.62345
-1.62511
-1.62687
-1.62872
-1.63069
-1.63278
-1.635
-1.63737
-1.6399
-1.64259
-1.64547
-1.64854
-1.6518
-1.65525
-1.65887
-1.66265
-1.66657
-1.67059
-1.67465
-1.67871
-1.68267
-1.68646
-1.68998
-1.69312
-1.69576
-1.69778
-1.69907
-1.69949
-1.69894
-1.69731
-1.69451
-1.69048
-1.68514
-1.67847
-1.67044
-1.66107
-1.65037
-1.63839
-1.62517
-1.6108
-1.59538
-1.57904
-1.56192
-1.54417
-1.52594
-1.50742
-1.48878
-1.47018
-1.4518
-1.43379
-1.41631
-1.39947
-1.38338
-1.36813
-1.35378
-1.34035
-1.32787
-1.31632
-1.30567
-1.29589
-1.28692
-1.2787
-1.27117
-1.26424
-1.25786
-1.25195
-1.24645
-1.24129
-1.23642
-1.23178
-1.22732
-1.22301
-1.2188
-1.21465
-1.21055
-1.20646
-1.20236
-1.19823
-1.19406
-1.18983
-1.18553
-1.18115
-1.17669
-1.17213
-1.16748
-1.16273
-1.15787
-1.15291
-1.14783
-1.14265
-1.13736
-1.13197
-1.12646
-1.12085
-1.11512
-1.1093
-1.10337
-1.09733
-1.0912
-1.08496
-1.07863
-1.0722
-1.06568
-1.05906
-1.05236
-1.04557
-1.03869
-1.03173
-1.02468
-1.01756
-1.01036
-1.00309
-0.995739
-0.988317
-0.980823
-0.973259
-0.965626
-0.957925
-0.950157
-0.942322
-0.934421
-0.926455
-0.918424
-0.910328
-0.902168
-0.893943
-0.885654
-0.877301
-0.868883
-0.860401
-0.851854
-0.843242
-0.834565
-0.825822
-0.817012
-0.808136
-0.799193
-0.790182
-0.781102
-0.771954
-0.762736
-0.753449
-0.744091
-0.734662
-0.725162
-0.715589
-0.705944
-0.696227
-0.686436
-0.676571
-0.666633
-0.656621
-0.646536
-0.636378
-0.626146
-0.615844
-0.605471
-0.59503
-0.584523
-0.573956
-0.563332
-0.552662
-0.541957
-0.531208
-0.520629
-1.61163
-1.61145
-1.61137
-1.61146
-1.61172
-1.61214
-1.6127
-1.6134
-1.61423
-1.61518
-1.61624
-1.6174
-1.61865
-1.61998
-1.6214
-1.62289
-1.62446
-1.62611
-1.62786
-1.62971
-1.63167
-1.63377
-1.63602
-1.63844
-1.64104
-1.64385
-1.64688
-1.65014
-1.65365
-1.6574
-1.66138
-1.66558
-1.66995
-1.67444
-1.679
-1.68353
-1.68793
-1.69208
-1.69587
-1.69915
-1.70178
-1.70362
-1.70456
-1.70445
-1.70319
-1.70069
-1.69687
-1.69169
-1.6851
-1.6771
-1.66769
-1.6569
-1.64477
-1.63135
-1.61677
-1.60113
-1.58455
-1.56716
-1.54912
-1.53059
-1.51175
-1.49277
-1.47382
-1.4551
-1.43675
-1.41893
-1.40178
-1.3854
-1.36988
-1.35528
-1.34164
-1.32898
-1.31727
-1.30649
-1.29659
-1.28753
-1.27923
-1.27163
-1.26465
-1.25823
-1.25228
-1.24674
-1.24155
-1.23665
-1.23199
-1.22751
-1.22318
-1.21894
-1.21478
-1.21066
-1.20655
-1.20244
-1.1983
-1.19411
-1.18987
-1.18556
-1.18118
-1.1767
-1.17214
-1.16748
-1.16272
-1.15786
-1.15289
-1.14781
-1.14263
-1.13734
-1.13194
-1.12643
-1.12082
-1.1151
-1.10927
-1.10334
-1.09731
-1.09117
-1.08494
-1.0786
-1.07218
-1.06566
-1.05904
-1.05234
-1.04555
-1.03867
-1.03171
-1.02467
-1.01755
-1.01035
-1.00308
-0.995729
-0.988307
-0.980814
-0.973251
-0.965619
-0.957918
-0.95015
-0.942316
-0.934416
-0.92645
-0.918419
-0.910324
-0.902164
-0.893939
-0.88565
-0.877297
-0.86888
-0.860398
-0.851851
-0.843239
-0.834562
-0.825819
-0.81701
-0.808133
-0.79919
-0.790179
-0.7811
-0.771952
-0.762734
-0.753447
-0.744089
-0.73466
-0.725159
-0.715587
-0.705942
-0.696224
-0.686433
-0.676568
-0.66663
-0.656618
-0.646532
-0.636373
-0.626141
-0.615838
-0.605464
-0.595022
-0.584514
-0.573945
-0.563321
-0.552649
-0.541943
-0.531168
-0.520667
-1.6104
-1.6103
-1.61029
-1.61045
-1.61077
-1.61124
-1.61185
-1.61259
-1.61344
-1.61441
-1.61547
-1.61661
-1.61784
-1.61914
-1.62051
-1.62195
-1.62347
-1.62507
-1.62676
-1.62856
-1.63049
-1.63259
-1.63488
-1.63739
-1.64015
-1.64321
-1.64658
-1.6503
-1.65437
-1.65881
-1.66359
-1.66868
-1.67404
-1.67957
-1.68519
-1.69078
-1.6962
-1.7013
-1.70594
-1.70995
-1.71318
-1.71549
-1.71675
-1.71684
-1.71566
-1.71312
-1.70918
-1.7038
-1.69694
-1.68862
-1.67885
-1.66766
-1.65512
-1.64131
-1.62631
-1.61024
-1.5932
-1.57533
-1.55679
-1.53774
-1.51836
-1.49882
-1.47931
-1.46002
-1.44112
-1.42277
-1.40511
-1.38826
-1.37231
-1.35733
-1.34335
-1.33039
-1.31843
-1.30745
-1.29739
-1.28819
-1.27978
-1.2721
-1.26505
-1.25857
-1.25259
-1.24702
-1.24181
-1.2369
-1.23222
-1.22772
-1.22338
-1.21913
-1.21496
-1.21083
-1.20672
-1.20259
-1.19844
-1.19425
-1.19
-1.18568
-1.18128
-1.1768
-1.17223
-1.16756
-1.16279
-1.15792
-1.15295
-1.14787
-1.14268
-1.13738
-1.13197
-1.12646
-1.12084
-1.11512
-1.10929
-1.10335
-1.09732
-1.09118
-1.08495
-1.07861
-1.07218
-1.06566
-1.05904
-1.05234
-1.04555
-1.03867
-1.03171
-1.02467
-1.01755
-1.01035
-1.00307
-0.995725
-0.988303
-0.98081
-0.973247
-0.965614
-0.957914
-0.950146
-0.942311
-0.934411
-0.926445
-0.918415
-0.910319
-0.902159
-0.893935
-0.885646
-0.877293
-0.868876
-0.860394
-0.851847
-0.843236
-0.834558
-0.825816
-0.817006
-0.80813
-0.799187
-0.790176
-0.781097
-0.771949
-0.762731
-0.753444
-0.744086
-0.734657
-0.725156
-0.715584
-0.705939
-0.696221
-0.686429
-0.676564
-0.666626
-0.656613
-0.646527
-0.636367
-0.626134
-0.615829
-0.605454
-0.59501
-0.584501
-0.573929
-0.563301
-0.552623
-0.541916
-0.531089
-0.520656
-1.60845
-1.60845
-1.60856
-1.60882
-1.60921
-1.60974
-1.61039
-1.61116
-1.61203
-1.61301
-1.61407
-1.61522
-1.61645
-1.61774
-1.61911
-1.62056
-1.62209
-1.62373
-1.62549
-1.62741
-1.62953
-1.63188
-1.63452
-1.63749
-1.64085
-1.64464
-1.64889
-1.65362
-1.65885
-1.66454
-1.67066
-1.67713
-1.68387
-1.69075
-1.69764
-1.70438
-1.7108
-1.71675
-1.72206
-1.72657
-1.73012
-1.7326
-1.73387
-1.73385
-1.73245
-1.72962
-1.72532
-1.71952
-1.71222
-1.70342
-1.69317
-1.68151
-1.6685
-1.6542
-1.63871
-1.62212
-1.60454
-1.58611
-1.56697
-1.54729
-1.52724
-1.50701
-1.4868
-1.46679
-1.44717
-1.42813
-1.40981
-1.39233
-1.37582
-1.36032
-1.34589
-1.33254
-1.32024
-1.30897
-1.29867
-1.28928
-1.28072
-1.27291
-1.26577
-1.25921
-1.25316
-1.24754
-1.24229
-1.23734
-1.23263
-1.22812
-1.22375
-1.21949
-1.2153
-1.21116
-1.20703
-1.20289
-1.19872
-1.19451
-1.19025
-1.18591
-1.1815
-1.17701
-1.17242
-1.16774
-1.16296
-1.15807
-1.15309
-1.14799
-1.14279
-1.13748
-1.13207
-1.12654
-1.12092
-1.11518
-1.10934
-1.1034
-1.09736
-1.09122
-1.08498
-1.07864
-1.07221
-1.06568
-1.05906
-1.05235
-1.04556
-1.03868
-1.03172
-1.02467
-1.01755
-1.01035
-1.00307
-0.995723
-0.988301
-0.980807
-0.973243
-0.96561
-0.957909
-0.950141
-0.942306
-0.934406
-0.92644
-0.918409
-0.910314
-0.902154
-0.89393
-0.885641
-0.877288
-0.868871
-0.860389
-0.851843
-0.843231
-0.834554
-0.825812
-0.817003
-0.808127
-0.799184
-0.790173
-0.781094
-0.771946
-0.762728
-0.753441
-0.744083
-0.734654
-0.725153
-0.715581
-0.705935
-0.696217
-0.686426
-0.67656
-0.666621
-0.656608
-0.646521
-0.63636
-0.626126
-0.61582
-0.605442
-0.594996
-0.584483
-0.573906
-0.563272
-0.552585
-0.541862
-0.531036
-0.520518
-1.60586
-1.606
-1.60624
-1.60659
-1.60704
-1.6076
-1.60828
-1.60906
-1.60994
-1.61092
-1.612
-1.61317
-1.61442
-1.61576
-1.6172
-1.61875
-1.62043
-1.62228
-1.62433
-1.62663
-1.62924
-1.63223
-1.63564
-1.63955
-1.644
-1.64903
-1.65466
-1.66089
-1.66768
-1.67499
-1.6827
-1.69072
-1.69891
-1.7071
-1.71514
-1.72285
-1.73006
-1.73659
-1.7423
-1.74703
-1.75065
-1.75304
-1.75412
-1.75381
-1.75204
-1.74878
-1.74401
-1.73771
-1.7299
-1.7206
-1.70985
-1.69769
-1.68418
-1.66938
-1.65338
-1.63627
-1.61813
-1.59911
-1.57933
-1.55896
-1.53818
-1.51717
-1.49614
-1.4753
-1.45485
-1.43498
-1.41587
-1.39765
-1.38045
-1.36433
-1.34935
-1.33551
-1.3228
-1.31117
-1.30058
-1.29094
-1.28218
-1.2742
-1.26692
-1.26026
-1.25412
-1.24842
-1.24311
-1.2381
-1.23335
-1.22879
-1.22439
-1.2201
-1.21588
-1.21171
-1.20755
-1.20338
-1.19919
-1.19495
-1.19066
-1.1863
-1.18187
-1.17735
-1.17274
-1.16803
-1.16323
-1.15832
-1.15331
-1.14819
-1.14297
-1.13765
-1.13221
-1.12667
-1.12103
-1.11528
-1.10943
-1.10348
-1.09743
-1.09127
-1.08502
-1.07868
-1.07224
-1.0657
-1.05908
-1.05237
-1.04557
-1.03869
-1.03172
-1.02468
-1.01755
-1.01035
-1.00307
-0.995719
-0.988295
-0.9808
-0.973236
-0.965602
-0.957901
-0.950132
-0.942298
-0.934397
-0.926432
-0.918401
-0.910306
-0.902146
-0.893922
-0.885634
-0.877281
-0.868864
-0.860383
-0.851837
-0.843226
-0.834549
-0.825807
-0.816998
-0.808123
-0.79918
-0.790169
-0.78109
-0.771942
-0.762725
-0.753438
-0.74408
-0.734651
-0.72515
-0.715578
-0.705932
-0.696214
-0.686422
-0.676556
-0.666616
-0.656602
-0.646514
-0.636352
-0.626117
-0.615808
-0.605428
-0.594978
-0.584461
-0.573878
-0.563236
-0.552535
-0.541794
-0.530946
-0.520352
-1.60284
-1.60312
-1.60348
-1.6039
-1.60439
-1.60496
-1.60563
-1.60641
-1.60729
-1.60828
-1.60937
-1.61058
-1.61191
-1.61337
-1.61498
-1.61678
-1.61879
-1.62107
-1.62369
-1.62669
-1.63016
-1.63416
-1.63877
-1.64402
-1.64996
-1.6566
-1.66392
-1.67188
-1.6804
-1.68937
-1.69867
-1.70813
-1.71761
-1.72691
-1.73587
-1.74431
-1.75206
-1.75896
-1.76486
-1.76963
-1.77316
-1.77535
-1.77612
-1.77542
-1.77321
-1.76946
-1.76417
-1.75734
-1.749
-1.73919
-1.72794
-1.7153
-1.70132
-1.68607
-1.66961
-1.65202
-1.63338
-1.6138
-1.59341
-1.57236
-1.55083
-1.52901
-1.50712
-1.48537
-1.464
-1.44321
-1.4232
-1.40414
-1.38615
-1.36932
-1.3537
-1.3393
-1.32611
-1.31407
-1.30313
-1.2932
-1.28419
-1.27602
-1.26857
-1.26176
-1.25549
-1.2497
-1.2443
-1.23922
-1.2344
-1.22979
-1.22533
-1.22099
-1.21672
-1.2125
-1.2083
-1.2041
-1.19986
-1.19559
-1.19126
-1.18686
-1.18239
-1.17783
-1.17319
-1.16845
-1.16361
-1.15867
-1.15363
-1.14848
-1.14323
-1.13788
-1.13242
-1.12686
-1.12119
-1.11542
-1.10955
-1.10358
-1.09751
-1.09135
-1.08508
-1.07873
-1.07228
-1.06573
-1.0591
-1.05238
-1.04558
-1.03869
-1.03172
-1.02467
-1.01754
-1.01034
-1.00306
-0.995708
-0.988283
-0.980788
-0.973223
-0.965589
-0.957888
-0.950119
-0.942285
-0.934385
-0.92642
-0.918389
-0.910295
-0.902135
-0.893912
-0.885624
-0.877272
-0.868856
-0.860375
-0.851829
-0.843219
-0.834543
-0.825801
-0.816992
-0.808117
-0.799175
-0.790165
-0.781086
-0.771938
-0.762721
-0.753434
-0.744077
-0.734648
-0.725147
-0.715574
-0.705929
-0.69621
-0.686418
-0.676552
-0.666611
-0.656597
-0.646508
-0.636344
-0.626107
-0.615796
-0.605413
-0.594959
-0.584436
-0.573846
-0.563193
-0.552477
-0.541714
-0.530835
-0.520164
-1.5997
-1.60011
-1.60057
-1.60103
-1.60152
-1.60208
-1.60274
-1.60349
-1.60437
-1.60537
-1.60652
-1.60782
-1.60929
-1.61097
-1.61289
-1.61509
-1.61764
-1.62059
-1.62403
-1.62803
-1.63266
-1.63799
-1.64406
-1.65091
-1.65854
-1.66692
-1.676
-1.68567
-1.69584
-1.70634
-1.71704
-1.72774
-1.73828
-1.74848
-1.75815
-1.76713
-1.77524
-1.78235
-1.78832
-1.79302
-1.79636
-1.79826
-1.79866
-1.79751
-1.7948
-1.79052
-1.78467
-1.77729
-1.76843
-1.75811
-1.74638
-1.73331
-1.71893
-1.7033
-1.68647
-1.66851
-1.64947
-1.62944
-1.60854
-1.5869
-1.56468
-1.54208
-1.51933
-1.49666
-1.47433
-1.45258
-1.43162
-1.41164
-1.3928
-1.37519
-1.35887
-1.34385
-1.33013
-1.31763
-1.3063
-1.29605
-1.28676
-1.27835
-1.2707
-1.26371
-1.25731
-1.25139
-1.24588
-1.2407
-1.23579
-1.2311
-1.22657
-1.22216
-1.21784
-1.21356
-1.2093
-1.20504
-1.20075
-1.19642
-1.19204
-1.1876
-1.18308
-1.17847
-1.17378
-1.16899
-1.16411
-1.15912
-1.15404
-1.14886
-1.14357
-1.13818
-1.13269
-1.12709
-1.1214
-1.1156
-1.10971
-1.10371
-1.09762
-1.09144
-1.08516
-1.07878
-1.07232
-1.06577
-1.05913
-1.0524
-1.04559
-1.03869
-1.03172
-1.02466
-1.01753
-1.01033
-1.00304
-0.995691
-0.988265
-0.980769
-0.973203
-0.96557
-0.957868
-0.950101
-0.942267
-0.934367
-0.926403
-0.918373
-0.910279
-0.902121
-0.893898
-0.885611
-0.87726
-0.868845
-0.860365
-0.85182
-0.84321
-0.834534
-0.825793
-0.816985
-0.808111
-0.799169
-0.790159
-0.781081
-0.771934
-0.762717
-0.75343
-0.744073
-0.734644
-0.725144
-0.715571
-0.705925
-0.696207
-0.686414
-0.676548
-0.666607
-0.656591
-0.646501
-0.636336
-0.626097
-0.615784
-0.605398
-0.594939
-0.58441
-0.573811
-0.563146
-0.552413
-0.541625
-0.530714
-0.519965
-1.59683
-1.59734
-1.59788
-1.59836
-1.59883
-1.59936
-1.59999
-1.60073
-1.60161
-1.60266
-1.60389
-1.60535
-1.60705
-1.60905
-1.6114
-1.61417
-1.61742
-1.62124
-1.6257
-1.63089
-1.63685
-1.64364
-1.65129
-1.65978
-1.66909
-1.67914
-1.68985
-1.70108
-1.71268
-1.72451
-1.73637
-1.7481
-1.7595
-1.7704
-1.78062
-1.78998
-1.79834
-1.80554
-1.81147
-1.81602
-1.81909
-1.82063
-1.82058
-1.81893
-1.81567
-1.81081
-1.80438
-1.79644
-1.78704
-1.77623
-1.76407
-1.75062
-1.73592
-1.72002
-1.70295
-1.68476
-1.66547
-1.64516
-1.62391
-1.60181
-1.57904
-1.55577
-1.53225
-1.50872
-1.48547
-1.46276
-1.44084
-1.41993
-1.40021
-1.38179
-1.36473
-1.34907
-1.33478
-1.3218
-1.31006
-1.29944
-1.28985
-1.28117
-1.2733
-1.26612
-1.25954
-1.25347
-1.24783
-1.24253
-1.23752
-1.23273
-1.22811
-1.22362
-1.21921
-1.21486
-1.21052
-1.20619
-1.20184
-1.19745
-1.19301
-1.1885
-1.18392
-1.17925
-1.1745
-1.16966
-1.16472
-1.15969
-1.15455
-1.14932
-1.14398
-1.13855
-1.13301
-1.12738
-1.12165
-1.11582
-1.10989
-1.10387
-1.09776
-1.09155
-1.08525
-1.07885
-1.07237
-1.06581
-1.05915
-1.05241
-1.04559
-1.03869
-1.03171
-1.02465
-1.01752
-1.01031
-1.00302
-0.995666
-0.988239
-0.980743
-0.973177
-0.965544
-0.957843
-0.950076
-0.942243
-0.934344
-0.926381
-0.918353
-0.91026
-0.902102
-0.893881
-0.885595
-0.877245
-0.868831
-0.860352
-0.851808
-0.843199
-0.834525
-0.825784
-0.816977
-0.808103
-0.799162
-0.790153
-0.781075
-0.771929
-0.762712
-0.753426
-0.744069
-0.73464
-0.72514
-0.715567
-0.705922
-0.696203
-0.68641
-0.676543
-0.666602
-0.656586
-0.646495
-0.636328
-0.626087
-0.615771
-0.605381
-0.594918
-0.584382
-0.573774
-0.563097
-0.552346
-0.541532
-0.530592
-0.519765
-1.59464
-1.59521
-1.59579
-1.59626
-1.59671
-1.59721
-1.59781
-1.59856
-1.59948
-1.6006
-1.60198
-1.60364
-1.60565
-1.60806
-1.61095
-1.61438
-1.61844
-1.62322
-1.62879
-1.63521
-1.64252
-1.65075
-1.6599
-1.66992
-1.68074
-1.69227
-1.70438
-1.71692
-1.72973
-1.74264
-1.75546
-1.76801
-1.78009
-1.79153
-1.80215
-1.81177
-1.82026
-1.82747
-1.83327
-1.83758
-1.84032
-1.84143
-1.84089
-1.83869
-1.83484
-1.82938
-1.82236
-1.81386
-1.80393
-1.79266
-1.7801
-1.76632
-1.75138
-1.7353
-1.71812
-1.69985
-1.68049
-1.66008
-1.63866
-1.61632
-1.59317
-1.56941
-1.54526
-1.521
-1.49692
-1.47333
-1.4505
-1.4287
-1.40813
-1.38891
-1.37114
-1.35483
-1.33998
-1.3265
-1.31433
-1.30334
-1.29342
-1.28446
-1.27634
-1.26895
-1.26218
-1.25594
-1.25015
-1.24471
-1.23957
-1.23466
-1.22993
-1.22534
-1.22083
-1.21639
-1.21197
-1.20756
-1.20313
-1.19866
-1.19414
-1.18956
-1.18491
-1.18017
-1.17535
-1.17045
-1.16545
-1.16035
-1.15515
-1.14986
-1.14448
-1.13899
-1.13341
-1.12773
-1.12195
-1.11608
-1.11012
-1.10406
-1.09792
-1.09168
-1.08535
-1.07894
-1.07244
-1.06585
-1.05918
-1.05243
-1.0456
-1.03869
-1.0317
-1.02463
-1.01749
-1.01028
-1.00299
-0.995636
-0.988208
-0.980711
-0.973145
-0.965512
-0.957812
-0.950046
-0.942214
-0.934317
-0.926355
-0.918328
-0.910236
-0.902081
-0.893861
-0.885576
-0.877228
-0.868814
-0.860337
-0.851794
-0.843186
-0.834513
-0.825774
-0.816968
-0.808095
-0.799154
-0.790146
-0.781069
-0.771923
-0.762707
-0.753421
-0.744064
-0.734636
-0.725136
-0.715564
-0.705918
-0.696199
-0.686406
-0.676539
-0.666597
-0.65658
-0.646488
-0.63632
-0.626077
-0.615759
-0.605365
-0.594897
-0.584354
-0.573737
-0.563046
-0.552277
-0.541439
-0.530472
-0.519574
-1.59346
-1.59405
-1.59463
-1.59508
-1.5955
-1.59598
-1.59658
-1.59736
-1.59834
-1.59958
-1.60114
-1.60306
-1.60542
-1.60829
-1.61174
-1.61587
-1.62076
-1.62648
-1.6331
-1.64067
-1.64922
-1.65873
-1.66918
-1.6805
-1.69259
-1.70533
-1.71858
-1.73218
-1.74595
-1.75972
-1.77329
-1.78646
-1.79906
-1.8109
-1.82179
-1.83157
-1.84009
-1.84722
-1.85283
-1.85686
-1.85922
-1.85989
-1.85884
-1.85609
-1.85166
-1.84561
-1.83802
-1.82897
-1.81853
-1.80681
-1.79388
-1.77982
-1.76469
-1.74851
-1.73131
-1.71308
-1.69381
-1.67347
-1.65209
-1.62969
-1.60639
-1.58234
-1.55775
-1.53293
-1.50818
-1.48383
-1.46022
-1.43762
-1.41627
-1.39633
-1.37788
-1.36098
-1.34558
-1.33162
-1.31902
-1.30766
-1.29742
-1.28817
-1.2798
-1.27218
-1.2652
-1.25877
-1.2528
-1.24721
-1.24193
-1.23688
-1.23203
-1.22731
-1.2227
-1.21815
-1.21363
-1.20912
-1.20459
-1.20004
-1.19543
-1.19077
-1.18603
-1.18122
-1.17633
-1.17134
-1.16627
-1.1611
-1.15584
-1.15049
-1.14504
-1.1395
-1.13386
-1.12813
-1.1223
-1.11639
-1.11038
-1.10429
-1.0981
-1.09184
-1.08548
-1.07904
-1.07252
-1.06591
-1.05922
-1.05246
-1.04561
-1.03869
-1.03169
-1.02462
-1.01747
-1.01025
-1.00296
-0.995603
-0.988173
-0.980675
-0.97311
-0.965477
-0.957777
-0.950012
-0.942181
-0.934286
-0.926325
-0.918299
-0.91021
-0.902055
-0.893837
-0.885554
-0.877207
-0.868796
-0.86032
-0.851778
-0.843172
-0.8345
-0.825762
-0.816957
-0.808085
-0.799145
-0.790138
-0.781061
-0.771916
-0.762701
-0.753415
-0.744059
-0.734631
-0.725132
-0.71556
-0.705914
-0.696195
-0.686402
-0.676535
-0.666593
-0.656575
-0.646482
-0.636313
-0.626067
-0.615746
-0.605349
-0.594875
-0.584325
-0.573699
-0.562995
-0.55221
-0.541348
-0.530357
-0.519396
-1.59349
-1.59406
-1.5946
-1.59502
-1.59542
-1.5959
-1.59652
-1.59734
-1.59841
-1.59979
-1.60155
-1.60374
-1.60645
-1.60976
-1.61376
-1.61854
-1.62416
-1.63072
-1.63825
-1.6468
-1.65636
-1.66691
-1.6784
-1.69073
-1.7038
-1.71747
-1.73159
-1.74599
-1.76048
-1.77488
-1.789
-1.80264
-1.8156
-1.82771
-1.83876
-1.84861
-1.8571
-1.86409
-1.8695
-1.87323
-1.87523
-1.87547
-1.87396
-1.87071
-1.86575
-1.85917
-1.85105
-1.84148
-1.83057
-1.81843
-1.80516
-1.79085
-1.77557
-1.75934
-1.74219
-1.72409
-1.70499
-1.68486
-1.66366
-1.64139
-1.61812
-1.59397
-1.56916
-1.54397
-1.51873
-1.49382
-1.46958
-1.44634
-1.42434
-1.40379
-1.38476
-1.36732
-1.35144
-1.33705
-1.32406
-1.31235
-1.30179
-1.29226
-1.28362
-1.27576
-1.26857
-1.26194
-1.25578
-1.25002
-1.24457
-1.23937
-1.23438
-1.22953
-1.22479
-1.22012
-1.21549
-1.21087
-1.20624
-1.20158
-1.19687
-1.19211
-1.18729
-1.18239
-1.17741
-1.17234
-1.16719
-1.16195
-1.15661
-1.15119
-1.14567
-1.14006
-1.13436
-1.12858
-1.1227
-1.11673
-1.11068
-1.10454
-1.09832
-1.09202
-1.08563
-1.07916
-1.07261
-1.06598
-1.05927
-1.05249
-1.04563
-1.03869
-1.03168
-1.0246
-1.01745
-1.01023
-1.00293
-0.995568
-0.988137
-0.980638
-0.973071
-0.965438
-0.95774
-0.949975
-0.942146
-0.934251
-0.926292
-0.918268
-0.91018
-0.902028
-0.893811
-0.88553
-0.877185
-0.868775
-0.860301
-0.851761
-0.843156
-0.834485
-0.825748
-0.816945
-0.808074
-0.799135
-0.790129
-0.781053
-0.771909
-0.762694
-0.753409
-0.744054
-0.734626
-0.725127
-0.715555
-0.70591
-0.696191
-0.686398
-0.676531
-0.666588
-0.65657
-0.646475
-0.636305
-0.626057
-0.615733
-0.605332
-0.594853
-0.584297
-0.573661
-0.562946
-0.552145
-0.541261
-0.530251
-0.519235
-1.59477
-1.59528
-1.59576
-1.59614
-1.59653
-1.59701
-1.59766
-1.59854
-1.5997
-1.60122
-1.60317
-1.60561
-1.60863
-1.61233
-1.61678
-1.62208
-1.6283
-1.63551
-1.64374
-1.65302
-1.66333
-1.67464
-1.68686
-1.69991
-1.71367
-1.72798
-1.74269
-1.75763
-1.77261
-1.78744
-1.80192
-1.81585
-1.82904
-1.84129
-1.85242
-1.86227
-1.87068
-1.87754
-1.88274
-1.88622
-1.88791
-1.88781
-1.88591
-1.88224
-1.87685
-1.86983
-1.86127
-1.85126
-1.83995
-1.82745
-1.81388
-1.79936
-1.78396
-1.76772
-1.75065
-1.73271
-1.71386
-1.694
-1.67308
-1.65106
-1.62796
-1.60388
-1.57902
-1.55367
-1.52817
-1.5029
-1.47825
-1.45455
-1.43208
-1.41105
-1.39158
-1.37372
-1.35744
-1.34268
-1.32935
-1.31732
-1.30647
-1.29667
-1.28778
-1.27968
-1.27226
-1.26542
-1.25906
-1.25311
-1.24749
-1.24212
-1.23697
-1.23198
-1.22709
-1.22229
-1.21753
-1.21279
-1.20804
-1.20327
-1.19846
-1.19359
-1.18867
-1.18367
-1.17859
-1.17344
-1.1682
-1.16287
-1.15745
-1.15195
-1.14636
-1.14068
-1.13492
-1.12907
-1.12314
-1.11712
-1.11101
-1.10483
-1.09857
-1.09222
-1.0858
-1.0793
-1.07272
-1.06606
-1.05933
-1.05253
-1.04565
-1.0387
-1.03168
-1.02459
-1.01743
-1.0102
-1.0029
-0.995534
-0.9881
-0.980599
-0.973032
-0.965399
-0.9577
-0.949936
-0.942108
-0.934215
-0.926257
-0.918235
-0.910149
-0.901998
-0.893783
-0.885504
-0.877161
-0.868753
-0.86028
-0.851742
-0.843138
-0.834469
-0.825734
-0.816931
-0.808062
-0.799124
-0.790119
-0.781044
-0.771901
-0.762687
-0.753403
-0.744048
-0.734621
-0.725122
-0.71555
-0.705906
-0.696187
-0.686394
-0.676526
-0.666583
-0.656564
-0.646469
-0.636296
-0.626047
-0.61572
-0.605316
-0.594832
-0.584269
-0.573624
-0.562897
-0.552082
-0.541179
-0.530152
-0.519091
-1.5972
-1.59761
-1.598
-1.59834
-1.5987
-1.59919
-1.59987
-1.6008
-1.60205
-1.60369
-1.60578
-1.60842
-1.61168
-1.61565
-1.62043
-1.6261
-1.63272
-1.64036
-1.64905
-1.65879
-1.66957
-1.68132
-1.69399
-1.70746
-1.7216
-1.73627
-1.75132
-1.76655
-1.78179
-1.79684
-1.8115
-1.82556
-1.83884
-1.85114
-1.86227
-1.87207
-1.8804
-1.88713
-1.89216
-1.89543
-1.8969
-1.89654
-1.89435
-1.89038
-1.88468
-1.87733
-1.86843
-1.8581
-1.84648
-1.83372
-1.81996
-1.8053
-1.78984
-1.77364
-1.75669
-1.73896
-1.72037
-1.70083
-1.68025
-1.65855
-1.63573
-1.61186
-1.58714
-1.56181
-1.53625
-1.51084
-1.48598
-1.46203
-1.43928
-1.41796
-1.39819
-1.38002
-1.36346
-1.34842
-1.33481
-1.32252
-1.31141
-1.30135
-1.29222
-1.28388
-1.27624
-1.26918
-1.26262
-1.25647
-1.25066
-1.24512
-1.2398
-1.23464
-1.22961
-1.22465
-1.21976
-1.21488
-1.21
-1.20511
-1.20018
-1.1952
-1.19016
-1.18505
-1.17988
-1.17462
-1.16928
-1.16387
-1.15836
-1.15278
-1.14711
-1.14136
-1.13552
-1.12961
-1.12361
-1.11753
-1.11138
-1.10514
-1.09883
-1.09245
-1.08599
-1.07945
-1.07284
-1.06616
-1.05941
-1.05258
-1.04569
-1.03872
-1.03169
-1.02459
-1.01742
-1.01018
-1.00287
-0.995502
-0.988064
-0.980561
-0.972992
-0.965358
-0.95766
-0.949897
-0.942069
-0.934177
-0.926221
-0.9182
-0.910115
-0.901967
-0.893754
-0.885477
-0.877135
-0.868729
-0.860258
-0.851722
-0.84312
-0.834452
-0.825718
-0.816917
-0.808049
-0.799113
-0.790108
-0.781035
-0.771892
-0.762679
-0.753396
-0.744041
-0.734615
-0.725116
-0.715545
-0.705901
-0.696182
-0.686389
-0.676521
-0.666578
-0.656558
-0.646462
-0.636288
-0.626037
-0.615707
-0.605299
-0.594811
-0.584241
-0.573588
-0.562851
-0.552022
-0.541102
-0.53006
-0.518963
-1.60053
-1.60082
-1.60111
-1.60139
-1.60172
-1.6022
-1.6029
-1.60386
-1.60517
-1.60687
-1.60906
-1.61181
-1.6152
-1.61933
-1.62428
-1.63013
-1.63695
-1.6448
-1.65368
-1.66362
-1.67458
-1.6865
-1.69932
-1.71292
-1.72718
-1.74194
-1.75706
-1.77235
-1.78762
-1.80269
-1.81735
-1.83139
-1.84463
-1.85687
-1.86792
-1.87763
-1.88585
-1.89245
-1.89735
-1.90047
-1.90177
-1.90124
-1.89887
-1.89471
-1.88882
-1.88129
-1.8722
-1.86171
-1.84996
-1.83711
-1.8233
-1.80865
-1.79327
-1.7772
-1.76045
-1.74297
-1.7247
-1.7055
-1.68527
-1.66393
-1.64144
-1.61787
-1.59338
-1.56823
-1.54278
-1.51743
-1.49257
-1.46858
-1.44577
-1.42435
-1.40445
-1.38615
-1.36941
-1.35419
-1.34039
-1.32789
-1.31656
-1.30628
-1.29692
-1.28836
-1.28049
-1.27321
-1.26644
-1.26008
-1.25407
-1.24835
-1.24284
-1.23752
-1.23232
-1.22721
-1.22216
-1.21714
-1.21212
-1.20709
-1.20203
-1.19692
-1.19176
-1.18654
-1.18125
-1.17589
-1.17045
-1.16493
-1.15933
-1.15366
-1.1479
-1.14207
-1.13616
-1.13018
-1.12411
-1.11798
-1.11177
-1.10548
-1.09912
-1.09269
-1.08619
-1.07962
-1.07298
-1.06627
-1.05949
-1.05264
-1.04573
-1.03875
-1.0317
-1.02459
-1.01741
-1.01016
-1.00285
-0.995471
-0.98803
-0.980524
-0.972953
-0.965318
-0.957619
-0.949856
-0.942029
-0.934138
-0.926183
-0.918164
-0.910081
-0.901934
-0.893723
-0.885448
-0.877108
-0.868704
-0.860235
-0.8517
-0.8431
-0.834434