/*--------------------------------*- C++ -*----------------------------------*\
  =========                 |
  \\      /  F ield         | OpenFOAM: The Open Source CFD Toolbox
   \\    /   O peration     | Website:  https://openfoam.org
    \\  /    A nd           | Version:  8
     \\/     M anipulation  |
\*---------------------------------------------------------------------------*/
FoamFile
{
    version     2.0;
    format      ascii;
    class       surfaceScalarField;
    location    "0.24";
    object      phi;
}
// * * * * * * * * * * * * * * * * * * * * * * * * * * * * * * * * * * * * * //

dimensions      [0 3 -1 0 0 0 0];

internalField   nonuniform List<scalar> 
24170
(
3.51238e-08
7.50329e-08
1.50085e-08
2.01153e-08
9.82321e-09
5.18528e-09
7.40201e-09
2.4212e-09
5.69752e-09
1.70449e-09
4.40988e-09
1.28764e-09
3.39013e-09
1.01975e-09
2.53358e-09
8.5655e-10
1.78552e-09
7.48061e-10
1.11269e-09
6.72836e-10
4.92077e-10
6.20609e-10
-9.22492e-11
5.84326e-10
-6.50582e-10
5.58333e-10
-1.18761e-09
5.37032e-10
-1.70667e-09
5.19053e-10
-2.26082e-09
5.54157e-10
-3.13059e-09
8.69769e-10
5.97178e-09
-9.10238e-09
8.17394e-08
1.11357e-07
4.98567e-08
5.19979e-08
3.48136e-08
2.02284e-08
2.6843e-08
1.03919e-08
2.15584e-08
6.98907e-09
1.75404e-08
5.30563e-09
1.43291e-08
4.231e-09
1.16357e-08
3.54998e-09
9.28576e-09
3.09801e-09
7.17316e-09
2.78543e-09
5.22503e-09
2.56874e-09
3.38904e-09
2.42032e-09
1.62745e-09
2.31992e-09
-8.72689e-11
2.25175e-09
-1.78754e-09
2.21933e-09
-3.60312e-09
2.36973e-09
-6.23466e-09
3.50131e-09
1.12133e-08
-1.14762e-08
1.16282e-07
1.21612e-07
8.72871e-08
8.09925e-08
6.57908e-08
4.17247e-08
5.22268e-08
2.39558e-08
4.30926e-08
1.61233e-08
3.61522e-08
1.2246e-08
3.05561e-08
9.82706e-09
2.58484e-08
8.25775e-09
2.17368e-08
7.20958e-09
1.80372e-08
6.48501e-09
1.46228e-08
5.98318e-09
1.13999e-08
5.6432e-09
8.29608e-09
5.42374e-09
5.24834e-09
5.2995e-09
2.17597e-09
5.29169e-09
-1.11524e-09
5.66094e-09
-5.22798e-09
7.61405e-09
1.60666e-08
-1.00813e-08
1.42085e-07
1.15146e-07
1.22529e-07
1.00548e-07
1.00261e-07
6.39926e-08
8.28794e-08
4.13377e-08
7.02091e-08
2.87935e-08
6.04309e-08
2.20243e-08
5.24509e-08
1.7807e-08
4.56848e-08
1.50239e-08
3.97511e-08
1.31433e-08
3.43968e-08
1.18394e-08
2.94444e-08
1.09356e-08
2.47596e-08
1.03279e-08
2.0233e-08
9.95032e-09
1.57621e-08
9.77049e-09
1.12206e-08
9.83314e-09
6.40686e-09
1.04747e-08
1.03289e-09
1.2988e-08
2.1099e-08
-3.99953e-09
1.60731e-07
9.97674e-08
1.52597e-07
1.08682e-07
1.34703e-07
8.18863e-08
1.16789e-07
5.92522e-08
1.01946e-07
4.36361e-08
8.99209e-08
3.40495e-08
7.98755e-08
2.78524e-08
7.12322e-08
2.36671e-08
6.3584e-08
2.07915e-08
5.66405e-08
1.87829e-08
5.01899e-08
1.73861e-08
4.4067e-08
1.64509e-08
3.81312e-08
1.58861e-08
3.22475e-08
1.56541e-08
2.62636e-08
1.5817e-08
2.0012e-08
1.67263e-08
1.34799e-08
1.95202e-08
2.67421e-08
7.83682e-09
1.7423e-07
8.13225e-08
1.76151e-07
1.06762e-07
1.65711e-07
9.23262e-08
1.50882e-07
7.40807e-08
1.36233e-07
5.82857e-08
1.23269e-07
4.70126e-08
1.11942e-07
3.91794e-08
1.01934e-07
3.36754e-08
9.29292e-08
2.97964e-08
8.46615e-08
2.70506e-08
7.69191e-08
2.51285e-08
6.95272e-08
2.38428e-08
6.23311e-08
2.30823e-08
5.51812e-08
2.2804e-08
4.79244e-08
2.30739e-08
4.04467e-08
2.42039e-08
3.29073e-08
2.70596e-08
3.32042e-08
2.64452e-08
1.84738e-07
6.35505e-08
1.93588e-07
9.79124e-08
1.91108e-07
9.4806e-08
1.81938e-07
8.32506e-08
1.70125e-07
7.00985e-08
1.58148e-07
5.89901e-08
1.46854e-07
5.04736e-08
1.36405e-07
4.41238e-08
1.26726e-07
3.94753e-08
1.17664e-07
3.61127e-08
1.0906e-07
3.37326e-08
1.00765e-07
3.2138e-08
9.2637e-08
3.12101e-08
8.45386e-08
3.09024e-08
7.63419e-08
3.12706e-08
6.79925e-08
3.25533e-08
5.97264e-08
3.53257e-08
4.04276e-08
5.2503e-08
1.9415e-07
4.8351e-08
2.06532e-07
8.55297e-08
2.10506e-07
9.08321e-08
2.07736e-07
8.60211e-08
2.00663e-07
7.71712e-08
1.91639e-07
6.80139e-08
1.82014e-07
6.00987e-08
1.72412e-07
5.37257e-08
1.63073e-07
4.88148e-08
1.54036e-07
4.51495e-08
1.45256e-07
4.25126e-08
1.36653e-07
4.07413e-08
1.28132e-07
3.97307e-08
1.19597e-07
3.94372e-08
1.1097e-07
3.98978e-08
1.02256e-07
4.12673e-08
9.37088e-08
4.38732e-08
4.80705e-08
8.6066e-08
2.0384e-07
3.63054e-08
2.1705e-07
7.23192e-08
2.25068e-07
8.28136e-08
2.27749e-07
8.33401e-08
2.25928e-07
7.89928e-08
2.21122e-07
7.28199e-08
2.14608e-07
6.66124e-08
2.0721e-07
6.11243e-08
1.99401e-07
5.66229e-08
1.91422e-07
5.31293e-08
1.83368e-07
5.05667e-08
1.75261e-07
4.88475e-08
1.67086e-07
4.79056e-08
1.58813e-07
4.77103e-08
1.5043e-07
4.82807e-08
1.42002e-07
4.96961e-08
1.33772e-07
5.2103e-08
5.55614e-08
1.26281e-07
2.14635e-07
2.72297e-08
2.26995e-07
5.99598e-08
2.36764e-07
7.30445e-08
2.43045e-07
7.70595e-08
2.45666e-07
7.63714e-08
2.45214e-07
7.32724e-08
2.42518e-07
6.93084e-08
2.38288e-07
6.53537e-08
2.33046e-07
6.18648e-08
2.27135e-07
5.90405e-08
2.20764e-07
5.69379e-08
2.14054e-07
5.55569e-08
2.07077e-07
5.48832e-08
1.9988e-07
5.49074e-08
1.92523e-07
5.56375e-08
1.85123e-07
5.70961e-08
1.77911e-07
5.93151e-08
6.21968e-08
1.71275e-07
2.2696e-07
2.05831e-08
2.37692e-07
4.9228e-08
2.47574e-07
6.31621e-08
2.55574e-07
6.90596e-08
2.61135e-07
7.08106e-08
2.64193e-07
7.0214e-08
2.65088e-07
6.84132e-08
2.64255e-07
6.61875e-08
2.62089e-07
6.40305e-08
2.58912e-07
6.22175e-08
2.54965e-07
6.08846e-08
2.50426e-07
6.0096e-08
2.45429e-07
5.98807e-08
2.40086e-07
6.02499e-08
2.34518e-07
6.12059e-08
2.28878e-07
6.27358e-08
2.23384e-07
6.4809e-08
6.72632e-08
2.18318e-07
2.02685e-07
1.62392e-08
2.10287e-07
4.16262e-08
2.17954e-07
5.54947e-08
2.25017e-07
6.19972e-08
2.30853e-07
6.49744e-08
2.35161e-07
6.59057e-08
2.3799e-07
6.55847e-08
2.3951e-07
6.46667e-08
2.39919e-07
6.36213e-08
2.39409e-07
6.27282e-08
2.38151e-07
6.21424e-08
2.36295e-07
6.19521e-08
2.3397e-07
6.22058e-08
2.31296e-07
6.29235e-08
2.28399e-07
6.41032e-08
2.25421e-07
6.57136e-08
2.22527e-07
6.77031e-08
6.98863e-08
2.19904e-07
2.45425e-07
1.25943e-08
2.52725e-07
3.43262e-08
2.60667e-07
4.75524e-08
2.68429e-07
5.4236e-08
2.75483e-07
5.79199e-08
2.81439e-07
5.99502e-08
2.86186e-07
6.0837e-08
2.8977e-07
6.10825e-08
2.92289e-07
6.11029e-08
2.93865e-07
6.11525e-08
2.94633e-07
6.13745e-08
2.9473e-07
6.1855e-08
2.94292e-07
6.26436e-08
2.93457e-07
6.37585e-08
2.9237e-07
6.51901e-08
2.91188e-07
6.68953e-08
2.90081e-07
6.88103e-08
7.07698e-08
2.89198e-07
2.97628e-07
9.69979e-09
3.04371e-07
2.7583e-08
3.12304e-07
3.96199e-08
3.20361e-07
4.6179e-08
3.28143e-07
5.01375e-08
3.35292e-07
5.28019e-08
3.4161e-07
5.45186e-08
3.47057e-07
5.56357e-08
3.51658e-07
5.6502e-08
3.55471e-07
5.73389e-08
3.58582e-07
5.82634e-08
3.61096e-07
5.93417e-08
3.63131e-07
6.06086e-08
3.64818e-07
6.2071e-08
3.66299e-07
6.37087e-08
3.67723e-07
6.54721e-08
3.69238e-07
6.72946e-08
6.90535e-08
3.70955e-07
3.6157e-07
7.41375e-09
3.67619e-07
2.15338e-08
3.75347e-07
3.18923e-08
3.83492e-07
3.80342e-08
3.9166e-07
4.19694e-08
3.9957e-07
4.48922e-08
4.07006e-07
4.70824e-08
4.13885e-07
4.87565e-08
4.20203e-07
5.01837e-08
4.25991e-07
5.15509e-08
4.31305e-07
5.295e-08
4.36222e-07
5.44239e-08
4.40842e-07
5.59892e-08
4.45274e-07
5.76393e-08
4.49636e-07
5.93459e-08
4.54049e-07
6.106e-08
4.58623e-07
6.27206e-08
6.42514e-08
4.63425e-07
4.3986e-07
5.52644e-09
4.45302e-07
1.60917e-08
4.52829e-07
2.43655e-08
4.61124e-07
2.97386e-08
4.6968e-07
3.34134e-08
4.78247e-07
3.63256e-08
4.86615e-07
3.87137e-08
4.94676e-07
4.06958e-08
5.0241e-07
4.24499e-08
5.09844e-07
4.4117e-08
5.17029e-07
4.57649e-08
5.24036e-07
4.74168e-08
5.3095e-07
4.9075e-08
5.37864e-07
5.07253e-08
5.44872e-07
5.23383e-08
5.52059e-07
5.3873e-08
5.59498e-07
5.52815e-08
5.65251e-08
5.67224e-07
5.35619e-07
3.80195e-09
5.40794e-07
1.09163e-08
5.48419e-07
1.67401e-08
5.57243e-07
2.09147e-08
5.66596e-07
2.40609e-08
5.76179e-07
2.67425e-08
5.85781e-07
2.9112e-08
5.95261e-07
3.12159e-08
6.0457e-07
3.31409e-08
6.13721e-07
3.49657e-08
6.2276e-07
3.67255e-08
6.31752e-07
3.84257e-08
6.40769e-07
4.00577e-08
6.4989e-07
4.16046e-08
6.59186e-07
4.30419e-08
6.68718e-07
4.43404e-08
6.78531e-07
4.54691e-08
4.6414e-08
6.88642e-07
6.52662e-07
1.96455e-09
6.58259e-07
5.31881e-09
6.66805e-07
8.19476e-09
6.77022e-07
1.06978e-08
6.88062e-07
1.30208e-08
6.99534e-07
1.52697e-08
7.11199e-07
1.74471e-08
7.22877e-07
1.95381e-08
7.34473e-07
2.15444e-08
7.45971e-07
2.34681e-08
7.57395e-07
2.53014e-08
7.68792e-07
2.70292e-08
7.80215e-07
2.86341e-08
7.91722e-07
3.00977e-08
8.03363e-07
3.14013e-08
8.15176e-07
3.2527e-08
8.27187e-07
3.34586e-08
3.41984e-08
8.39402e-07
7.95802e-07
-4.73309e-10
8.03306e-07
-2.18531e-09
8.14681e-07
-3.18034e-09
8.28156e-07
-2.77717e-09
8.42662e-07
-1.48581e-09
8.57726e-07
2.06291e-10
8.73037e-07
2.13593e-09
8.88355e-07
4.21995e-09
9.03544e-07
6.35572e-09
9.1856e-07
8.45213e-09
9.3341e-07
1.04519e-08
9.48119e-07
1.23193e-08
9.62725e-07
1.40283e-08
9.77264e-07
1.55586e-08
9.9177e-07
1.68961e-08
1.00626e-06
1.80319e-08
1.02076e-06
1.89618e-08
1.96976e-08
1.03526e-06
5.8349e-07
-3.16755e-09
5.91063e-07
-9.75831e-09
6.01752e-07
-1.38692e-08
6.13889e-07
-1.49148e-08
6.26622e-07
-1.42188e-08
6.39564e-07
-1.27356e-08
6.52459e-07
-1.07594e-08
6.65138e-07
-8.45879e-09
6.77523e-07
-6.02883e-09
6.89595e-07
-3.62007e-09
7.01365e-07
-1.31839e-09
7.12857e-07
8.27325e-10
7.241e-07
2.78502e-09
7.35125e-07
4.53438e-09
7.45956e-07
6.06516e-09
7.56614e-07
7.37358e-09
7.67113e-07
8.46304e-09
9.34795e-09
7.77462e-07
5.0929e-07
-6.84591e-09
5.1899e-07
-1.94584e-08
5.31562e-07
-2.64413e-08
5.45006e-07
-2.83586e-08
5.58628e-07
-2.78404e-08
5.7207e-07
-2.61773e-08
5.85062e-07
-2.37515e-08
5.97475e-07
-2.0872e-08
6.09285e-07
-1.78393e-08
6.20516e-07
-1.48506e-08
6.31209e-07
-1.2012e-08
6.41419e-07
-9.38212e-09
6.512e-07
-6.99572e-09
6.60604e-07
-4.87032e-09
6.6968e-07
-3.01063e-09
6.78467e-07
-1.413e-09
6.86997e-07
-6.68857e-11
1.04105e-09
6.95304e-07
4.4569e-07
-1.2375e-08
4.58725e-07
-3.24937e-08
4.73874e-07
-4.15903e-08
4.88973e-07
-4.34578e-08
5.03491e-07
-4.23584e-08
5.17013e-07
-3.96992e-08
5.29301e-07
-3.60394e-08
5.4036e-07
-3.19304e-08
5.50306e-07
-2.7786e-08
5.59289e-07
-2.3833e-08
5.67458e-07
-2.01812e-08
5.74956e-07
-1.68804e-08
5.81908e-07
-1.39475e-08
5.88416e-07
-1.13786e-08
5.94563e-07
-9.15755e-09
6.00413e-07
-7.2622e-09
6.06011e-07
-5.66553e-09
-4.34922e-09
6.11401e-07
3.91999e-07
-2.11919e-08
4.09468e-07
-4.99627e-08
4.27098e-07
-5.92205e-08
4.42915e-07
-5.92746e-08
4.56472e-07
-5.59155e-08
4.67474e-07
-5.07006e-08
4.76104e-07
-4.46701e-08
4.82814e-07
-3.86402e-08
4.88061e-07
-3.30329e-08
4.92236e-07
-2.80084e-08
4.95654e-07
-2.35993e-08
4.98554e-07
-1.97802e-08
5.0111e-07
-1.65028e-08
5.03442e-07
-1.37114e-08
5.05635e-07
-1.13501e-08
5.0774e-07
-9.36743e-09
5.0979e-07
-7.71538e-09
-6.36311e-09
5.11804e-07
3.47605e-07
-3.52178e-08
3.69377e-07
-7.17343e-08
3.87036e-07
-7.68794e-08
3.99596e-07
-7.18345e-08
4.07329e-07
-6.36489e-08
4.11046e-07
-5.44176e-08
4.12013e-07
-4.56371e-08
4.11326e-07
-3.7953e-08
4.0975e-07
-3.14575e-08
4.0779e-07
-2.60484e-08
4.05758e-07
-2.15672e-08
4.03835e-07
-1.78565e-08
4.02114e-07
-1.47825e-08
4.00639e-07
-1.22359e-08
3.99417e-07
-1.01282e-08
3.98437e-07
-8.38763e-09
3.97677e-07
-6.95579e-09
-5.79165e-09
3.97106e-07
3.11064e-07
-5.58842e-08
3.33548e-07
-9.42185e-08
3.44918e-07
-8.82486e-08
3.47518e-07
-7.4435e-08
3.44097e-07
-6.02283e-08
3.37481e-07
-4.78016e-08
3.29791e-07
-3.79465e-08
3.22153e-07
-3.03146e-08
3.15084e-07
-2.43887e-08
3.08788e-07
-1.97521e-08
3.03302e-07
-1.60813e-08
2.98586e-07
-1.31407e-08
2.94568e-07
-1.07648e-08
2.91167e-07
-8.83465e-09
2.883e-07
-7.26148e-09
2.8589e-07
-5.97739e-09
2.83865e-07
-4.93121e-09
-4.08233e-09
2.82156e-07
2.78714e-07
-8.1792e-08
2.93305e-07
-1.0881e-07
2.90307e-07
-8.52498e-08
2.78578e-07
-6.27064e-08
2.63885e-07
-4.55358e-08
2.49714e-07
-3.36304e-08
2.37326e-07
-2.55587e-08
2.26847e-07
-1.98349e-08
2.18087e-07
-1.56294e-08
2.10797e-07
-1.24621e-08
2.04734e-07
-1.00176e-08
1.99687e-07
-8.09415e-09
1.95484e-07
-6.56187e-09
1.91981e-07
-5.33121e-09
1.89057e-07
-4.3375e-09
1.86612e-07
-3.53218e-09
1.8456e-07
-2.88007e-09
-2.34904e-09
1.82827e-07
2.4407e-07
-1.05781e-07
2.39829e-07
-1.04569e-07
2.19429e-07
-6.48498e-08
1.97101e-07
-4.03784e-08
1.77982e-07
-2.64169e-08
1.62984e-07
-1.86331e-08
1.5128e-07
-1.38545e-08
1.42017e-07
-1.05715e-08
1.34606e-07
-8.21905e-09
1.28626e-07
-6.48159e-09
1.23765e-07
-5.15647e-09
1.19794e-07
-4.12298e-09
1.16538e-07
-3.30599e-09
1.13861e-07
-2.65417e-09
1.11654e-07
-2.13085e-09
1.09831e-07
-1.7086e-09
1.08318e-07
-1.368e-09
-1.08735e-09
1.07057e-07
1.99388e-07
-1.13578e-07
1.70991e-07
-7.61718e-08
1.40728e-07
-3.45875e-08
1.18225e-07
-1.78753e-08
1.02754e-07
-1.09454e-08
9.17914e-08
-7.67069e-09
8.35881e-08
-5.65115e-09
7.72728e-08
-4.25619e-09
7.23298e-08
-3.27603e-09
6.84086e-08
-2.5604e-09
6.5269e-08
-2.01689e-09
6.27407e-08
-1.59468e-09
6.06971e-08
-1.2624e-09
5.90413e-08
-9.98341e-10
5.76976e-08
-7.87136e-10
5.66061e-08
-6.17166e-10
5.57188e-08
-4.80698e-10
-3.64619e-10
5.49961e-08
1.39096e-07
-8.58849e-08
9.49748e-08
-3.20503e-08
6.9733e-08
-9.34567e-09
5.58034e-08
-3.9456e-09
4.72903e-08
-2.43224e-09
4.13598e-08
-1.74026e-09
3.6973e-08
-1.26427e-09
3.36553e-08
-9.38557e-10
3.10951e-08
-7.1583e-10
2.90887e-08
-5.53938e-10
2.75027e-08
-4.30889e-10
2.62435e-08
-3.35506e-10
2.52418e-08
-2.60669e-10
2.44448e-08
-2.01366e-10
2.38117e-08
-1.54091e-10
2.33106e-08
-1.16058e-10
2.29159e-08
-8.59948e-11
-5.81458e-11
2.26095e-08
5.9314e-08
2.72636e-08
1.7918e-08
1.39724e-08
1.15401e-08
9.79986e-09
8.53559e-09
7.59703e-09
6.8812e-09
6.32727e-09
5.89638e-09
5.56087e-09
5.3002e-09
5.09884e-09
4.94475e-09
4.82869e-09
4.74269e-09
4.68455e-09
4.07295e-10
-4.07295e-10
1.61532e-09
-1.20802e-09
3.45003e-09
-1.83471e-09
5.68605e-09
-2.23602e-09
8.12325e-09
-2.4372e-09
1.06007e-08
-2.47743e-09
1.29974e-08
-2.39672e-09
1.52282e-08
-2.23079e-09
1.72368e-08
-2.00858e-09
1.89885e-08
-1.75176e-09
2.04639e-08
-1.47535e-09
2.1653e-08
-1.18909e-09
2.25518e-08
-8.98828e-10
2.31595e-08
-6.07649e-10
2.34756e-08
-3.16183e-10
2.34995e-08
-2.38492e-11
2.32289e-08
2.70579e-10
2.26584e-08
5.7048e-10
2.17782e-08
8.80188e-10
2.05725e-08
1.20576e-09
1.90181e-08
1.55435e-09
1.70847e-08
1.93339e-09
1.47339e-08
2.35085e-09
1.19191e-08
2.81483e-09
8.58713e-09
3.33193e-09
4.68032e-09
3.90681e-09
1.37963e-10
4.54236e-09
-5.10248e-09
5.24045e-09
-1.11007e-08
5.99826e-09
-1.7909e-08
6.80827e-09
-2.55704e-08
7.66134e-09
-3.41153e-08
8.54493e-09
-4.35586e-08
9.44332e-09
-5.38966e-08
1.03379e-08
-6.51044e-08
1.12078e-08
-7.71346e-08
1.20302e-08
-8.9916e-08
1.27814e-08
-1.03354e-07
1.34377e-08
-1.1733e-07
1.39763e-08
-1.31707e-07
1.43766e-08
-1.46327e-07
1.46208e-08
-1.61022e-07
1.46949e-08
-1.75611e-07
1.45892e-08
-1.8991e-07
1.42987e-08
-2.03733e-07
1.38228e-08
-2.16898e-07
1.31655e-08
-2.29233e-07
1.23344e-08
-2.40574e-07
1.13407e-08
-2.50772e-07
1.01981e-08
-2.59694e-07
8.92265e-09
-2.67226e-07
7.53184e-09
-2.73271e-07
6.04521e-09
-2.77754e-07
4.48213e-09
-2.80612e-07
2.85845e-09
-2.81803e-07
1.19078e-09
-2.81311e-07
-4.91987e-10
-2.79153e-07
-2.15775e-09
-2.75372e-07
-3.78083e-09
-2.70033e-07
-5.33933e-09
-2.63222e-07
-6.81119e-09
-2.55047e-07
-8.17465e-09
-2.45638e-07
-9.40904e-09
-2.35142e-07
-1.04957e-08
-2.23724e-07
-1.14186e-08
-2.11558e-07
-1.21655e-08
-1.9883e-07
-1.27283e-08
-1.85726e-07
-1.31036e-08
-1.72433e-07
-1.32931e-08
-1.5913e-07
-1.33033e-08
-1.45985e-07
-1.31453e-08
-1.3315e-07
-1.28343e-08
-1.20762e-07
-1.23885e-08
-1.08933e-07
-1.18284e-08
-9.77576e-08
-1.11758e-08
-8.73049e-08
-1.04527e-08
-7.76243e-08
-9.68059e-09
-6.87447e-08
-8.87959e-09
-6.06767e-08
-8.06797e-09
-5.3415e-08
-7.26169e-09
-4.69408e-08
-6.47424e-09
-4.12243e-08
-5.7165e-09
-3.62274e-08
-4.99684e-09
-3.19062e-08
-4.32128e-09
-2.82124e-08
-3.69377e-09
-2.50959e-08
-3.11649e-09
-2.25058e-08
-2.59007e-09
-2.03919e-08
-2.11394e-09
-1.87053e-08
-1.68662e-09
-1.73993e-08
-1.30594e-09
-1.643e-08
-9.69306e-10
-1.57562e-08
-6.73818e-10
-1.53397e-08
-4.1655e-10
-1.51448e-08
-1.94893e-10
-1.51451e-08
3.5802e-13
-1.53044e-08
1.59301e-10
-1.56006e-08
2.96222e-10
-1.60105e-08
4.09882e-10
-1.65135e-08
5.02938e-10
-1.70911e-08
5.77677e-10
-1.77273e-08
6.36196e-10
-1.84077e-08
6.804e-10
-1.91197e-08
7.11999e-10
-1.98523e-08
7.32544e-10
-2.05957e-08
7.43439e-10
-2.13416e-08
7.45944e-10
-2.20828e-08
7.41176e-10
-2.2813e-08
7.30141e-10
-2.35267e-08
7.13743e-10
-2.42195e-08
6.92793e-10
-2.48875e-08
6.68017e-10
-2.55276e-08
6.40074e-10
-2.61371e-08
6.09562e-10
-2.67142e-08
5.77034e-10
-2.72572e-08
5.43001e-10
-2.77651e-08
5.07915e-10
-2.82373e-08
4.72186e-10
-2.86735e-08
4.36197e-10
-2.90738e-08
4.00292e-10
-2.94385e-08
3.64786e-10
-2.97685e-08
3.29962e-10
-3.00646e-08
2.96066e-10
-3.03279e-08
2.63313e-10
-3.05598e-08
2.31887e-10
-3.07617e-08
2.01936e-10
-3.09353e-08
1.73575e-10
-3.10822e-08
1.46883e-10
-3.12041e-08
1.21906e-10
-3.13027e-08
9.86652e-11
-3.13799e-08
7.71566e-11
-3.14372e-08
5.73522e-11
-3.14765e-08
3.9207e-11
-3.14991e-08
2.26554e-11
-3.1507e-08
7.87787e-12
-3.15019e-08
-5.0585e-12
-3.14841e-08
-1.78478e-11
-3.14553e-08
-2.87471e-11
-3.1417e-08
-3.8298e-11
-3.13703e-08
-4.67707e-11
-3.1316e-08
-5.42621e-11
-3.12552e-08
-6.08555e-11
-3.11885e-08
-6.66322e-11
-3.11169e-08
-7.16715e-11
-3.10408e-08
-7.60497e-11
-3.0961e-08
-7.98317e-11
-3.08779e-08
-8.30784e-11
-3.0792e-08
-8.58553e-11
-3.07038e-08
-8.82216e-11
-3.06136e-08
-9.02275e-11
-3.05217e-08
-9.19238e-11
-3.04283e-08
-9.33551e-11
-3.03338e-08
-9.45595e-11
-3.02382e-08
-9.55713e-11
-3.01418e-08
-9.64198e-11
-3.00446e-08
-9.71294e-11
-2.99469e-08
-9.77225e-11
-2.98487e-08
-9.82177e-11
-2.97501e-08
-9.86321e-11
-2.96511e-08
-9.89791e-11
-2.95518e-08
-9.92721e-11
-2.94523e-08
-9.95228e-11
-2.93525e-08
-9.9744e-11
-2.92526e-08
-9.99485e-11
-2.91524e-08
-1.00154e-10
-2.90521e-08
-1.00374e-10
-2.89514e-08
-1.00638e-10
-2.88504e-08
-1.00981e-10
-2.8749e-08
-1.01459e-10
-2.86468e-08
-1.02143e-10
-2.85437e-08
-1.03136e-10
-2.84391e-08
-1.04603e-10
-2.83323e-08
-1.06787e-10
-2.82223e-08
-1.10056e-10
-2.81073e-08
-1.15001e-10
-2.79847e-08
-1.22588e-10
-2.78498e-08
-1.34839e-10
-2.76946e-08
-1.55232e-10
-2.74974e-08
-1.97236e-10
-2.72125e-08
-2.84852e-10
-2.65862e-08
-6.26322e-10
-1.38895e-09
-2.51972e-08
1.02182e-09
-1.42912e-09
3.461e-09
-3.64721e-09
6.8394e-09
-5.2131e-09
1.07647e-08
-6.16131e-09
1.49104e-08
-6.58289e-09
1.90177e-08
-6.58471e-09
2.28894e-08
-6.26852e-09
2.63799e-08
-5.72124e-09
2.93824e-08
-5.0111e-09
3.18183e-08
-4.18766e-09
3.36273e-08
-3.28436e-09
3.47602e-08
-2.32202e-09
3.51737e-08
-1.31231e-09
3.4829e-08
-2.62964e-10
3.36776e-08
8.35236e-10
3.16775e-08
1.97628e-09
2.87786e-08
3.16943e-09
2.49259e-08
4.42318e-09
2.00553e-08
5.75079e-09
1.40923e-08
7.16875e-09
6.95173e-09
8.69497e-09
-1.4634e-09
1.03485e-08
-1.12599e-08
1.21473e-08
-2.25494e-08
1.41044e-08
-3.54433e-08
1.62258e-08
-5.00464e-08
1.85099e-08
-6.64482e-08
2.09442e-08
-8.47128e-08
2.3505e-08
-1.04871e-07
2.61563e-08
-1.26912e-07
2.88498e-08
-1.50778e-07
3.1527e-08
-1.76354e-07
3.41212e-08
-2.03471e-07
3.65602e-08
-2.31903e-07
3.87701e-08
-2.61375e-07
4.06791e-08
-2.91566e-07
4.22212e-08
-3.22124e-07
4.33395e-08
-3.52675e-07
4.39888e-08
-3.82836e-07
4.41374e-08
-4.12227e-07
4.37677e-08
-4.40482e-07
4.28761e-08
-4.6726e-07
4.14723e-08
-4.92248e-07
3.95774e-08
-5.15171e-07
3.72222e-08
-5.35794e-07
3.44452e-08
-5.53919e-07
3.12904e-08
-5.6939e-07
2.78054e-08
-5.82089e-07
2.40397e-08
-5.91934e-07
2.00433e-08
-5.98877e-07
1.58658e-08
-6.029e-07
1.15547e-08
-6.0401e-07
7.15562e-09
-6.02243e-07
2.71498e-09
-5.97672e-07
-1.7125e-09
-5.90409e-07
-6.07223e-09
-5.80576e-07
-1.03253e-08
-5.68298e-07
-1.44352e-08
-5.53717e-07
-1.8362e-08
-5.36992e-07
-2.2064e-08
-5.18304e-07
-2.54998e-08
-4.9785e-07
-2.86286e-08
-4.75847e-07
-3.14118e-08
-4.52528e-07
-3.38148e-08
-4.28138e-07
-3.58081e-08
-4.02934e-07
-3.73697e-08
-3.77177e-07
-3.84859e-08
-3.51128e-07
-3.91528e-08
-3.25044e-07
-3.93766e-08
-2.99174e-07
-3.91735e-08
-2.7375e-07
-3.85693e-08
-2.48986e-07
-3.75982e-08
-2.25074e-07
-3.63008e-08
-2.02179e-07
-3.47231e-08
-1.80441e-07
-3.29139e-08
-1.59971e-07
-3.0923e-08
-1.40851e-07
-2.87998e-08
-1.23139e-07
-2.65915e-08
-1.06866e-07
-2.43417e-08
-9.20377e-08
-2.20897e-08
-7.8642e-08
-1.98699e-08
-6.66472e-08
-1.77114e-08
-5.60064e-08
-1.56376e-08
-4.66606e-08
-1.36671e-08
-3.8541e-08
-1.18133e-08
-3.15719e-08
-1.00856e-08
-2.56727e-08
-8.48923e-09
-2.07604e-08
-7.02624e-09
-1.67512e-08
-5.69587e-09
-1.3562e-08
-4.49507e-09
-1.11121e-08
-3.41926e-09
-9.32345e-09
-2.46246e-09
-8.12221e-09
-1.61779e-09
-7.43931e-09
-8.77794e-10
-7.20783e-09
-2.31118e-10
-7.36982e-09
3.21293e-10
-7.86778e-09
7.94183e-10
-8.65181e-09
1.19391e-09
-9.67578e-09
1.52691e-09
-1.08978e-08
1.79974e-09
-1.22802e-08
2.01857e-09
-1.37889e-08
2.1891e-09
-1.53935e-08
2.31663e-09
-1.7067e-08
2.40603e-09
-1.87853e-08
2.46172e-09
-2.05271e-08
2.48776e-09
-2.22738e-08
2.48785e-09
-2.4009e-08
2.46536e-09
-2.57186e-08
2.42335e-09
-2.73904e-08
2.36461e-09
-2.90141e-08
2.29169e-09
-3.0581e-08
2.20695e-09
-3.20839e-08
2.11251e-09
-3.35173e-08
2.01037e-09
-3.48766e-08
1.90235e-09
-3.61588e-08
1.79008e-09
-3.73617e-08
1.67508e-09
-3.84842e-08
1.55873e-09
-3.95262e-08
1.44228e-09
-4.04883e-08
1.32686e-09
-4.13718e-08
1.21346e-09
-4.21786e-08
1.10294e-09
-4.29114e-08
9.96053e-10
-4.35729e-08
8.93411e-10
-4.41665e-08
7.95518e-10
-4.46957e-08
7.02757e-10
-4.51642e-08
6.15403e-10
-4.55759e-08
5.33628e-10
-4.59347e-08
4.57511e-10
-4.62446e-08
3.87051e-10
-4.65095e-08
3.22174e-10
-4.6733e-08
2.62748e-10
-4.6919e-08
2.08602e-10
-4.70707e-08
1.59604e-10
-4.71912e-08
1.15477e-10
-4.72845e-08
7.54486e-11
-4.73531e-08
3.9798e-11
-4.73995e-08
8.15494e-12
-4.74264e-08
-1.9863e-11
-4.74361e-08
-4.45868e-11
-4.74306e-08
-6.6313e-11
-4.7412e-08
-8.53139e-11
-4.73818e-08
-1.01855e-10
-4.73416e-08
-1.16205e-10
-4.72929e-08
-1.28576e-10
-4.72368e-08
-1.39196e-10
-4.71744e-08
-1.48259e-10
-4.71066e-08
-1.55966e-10
-4.70344e-08
-1.62468e-10
-4.69584e-08
-1.67935e-10
-4.68792e-08
-1.72492e-10
-4.67975e-08
-1.76265e-10
-4.67137e-08
-1.79357e-10
-4.66283e-08
-1.81857e-10
-4.65416e-08
-1.83844e-10
-4.64539e-08
-1.85381e-10
-4.63656e-08
-1.86523e-10
-4.62769e-08
-1.87314e-10
-4.61881e-08
-1.87789e-10
-4.60994e-08
-1.87977e-10
-4.6011e-08
-1.87899e-10
-4.59232e-08
-1.87574e-10
-4.58361e-08
-1.87017e-10
-4.57501e-08
-1.86249e-10
-4.56652e-08
-1.85271e-10
-4.55816e-08
-1.84147e-10
-4.54997e-08
-1.82902e-10
-4.54195e-08
-1.81653e-10
-4.53411e-08
-1.80529e-10
-4.52645e-08
-1.79745e-10
-4.51894e-08
-1.79733e-10
-4.51151e-08
-1.81055e-10
-4.50405e-08
-1.84728e-10
-4.49631e-08
-1.92376e-10
-4.48788e-08
-2.06923e-10
-4.47795e-08
-2.34121e-10
-4.46509e-08
-2.83767e-10
-4.44561e-08
-3.92063e-10
-4.41449e-08
-5.96095e-10
-4.3474e-08
-1.29716e-09
-2.54626e-09
-4.23167e-08
1.13541e-09
-2.56452e-09
3.70926e-09
-6.22106e-09
7.10252e-09
-8.60637e-09
1.08578e-08
-9.9166e-09
1.46313e-08
-1.03564e-08
1.81653e-08
-1.01186e-08
2.12661e-08
-9.36937e-09
2.37856e-08
-8.2407e-09
2.56045e-08
-6.83006e-09
2.66208e-08
-5.20395e-09
2.67405e-08
-3.404e-09
2.58727e-08
-1.45425e-09
2.39249e-08
6.35501e-10
2.0799e-08
2.86292e-09
1.64012e-08
5.23304e-09
1.06243e-08
7.75314e-09
3.35806e-09
1.04357e-08
-5.51677e-09
1.3298e-08
-1.61264e-08
1.63605e-08
-2.8602e-08
1.96443e-08
-4.30775e-08
2.31705e-08
-5.96839e-08
2.6955e-08
-7.85407e-08
3.1004e-08
-9.97455e-08
3.53091e-08
-1.23363e-07
3.98431e-08
-1.4941e-07
4.45571e-08
-1.77846e-07
4.93803e-08
-2.08561e-07
5.42202e-08
-2.41371e-07
5.89661e-08
-2.76016e-07
6.34946e-08
-3.12164e-07
6.76754e-08
-3.49422e-07
7.13791e-08
-3.87347e-07
7.44848e-08
-4.25462e-07
7.68859e-08
-4.6328e-07
7.84962e-08
-5.00312e-07
7.92533e-08
-5.36093e-07
7.91208e-08
-5.70192e-07
7.80879e-08
-6.02223e-07
7.61685e-08
-6.31854e-07
7.33981e-08
-6.58808e-07
6.98303e-08
-6.82869e-07
6.5533e-08
-7.03875e-07
6.05837e-08
-7.21719e-07
5.5066e-08
-7.36339e-07
4.90655e-08
-7.47716e-07
4.26676e-08
-7.55865e-07
3.59546e-08
-7.6083e-07
2.90043e-08
-7.62676e-07
2.18895e-08
-7.61488e-07
1.46773e-08
-7.57364e-07
7.43082e-09
-7.50419e-07
2.10304e-10
-7.40788e-07
-6.91547e-09
-7.28594e-07
-1.39071e-08
-7.13941e-07
-2.07247e-08
-6.96944e-07
-2.73222e-08
-6.77731e-07
-3.36482e-08
-6.56444e-07
-3.96493e-08
-6.33239e-07
-4.52694e-08
-6.08287e-07
-5.04511e-08
-5.81779e-07
-5.51371e-08
-5.53918e-07
-5.92722e-08
-5.24927e-07
-6.2806e-08
-4.95039e-07
-6.56957e-08
-4.645e-07
-6.7909e-08
-4.3356e-07
-6.94262e-08
-4.0247e-07
-7.02421e-08
-3.71481e-07
-7.03665e-08
-3.40829e-07
-6.98246e-08
-3.10743e-07
-6.86556e-08
-2.8143e-07
-6.69111e-08
-2.53078e-07
-6.4653e-08
-2.25851e-07
-6.19503e-08
-1.99888e-07
-5.88765e-08
-1.75304e-07
-5.55069e-08
-1.52188e-07
-5.1916e-08
-1.30604e-07
-4.81756e-08
-1.10593e-07
-4.43524e-08
-9.21757e-08
-4.05075e-08
-7.53505e-08
-3.66951e-08
-6.01001e-08
-3.29618e-08
-4.63908e-08
-2.93469e-08
-3.41757e-08
-2.58822e-08
-2.33968e-08
-2.25923e-08
-1.39856e-08
-1.94968e-08
-5.86742e-09
-1.66074e-08
1.03841e-09
-1.39321e-08
6.81631e-09
-1.14738e-08
1.15525e-08
-9.23126e-09
1.53332e-08
-7.19996e-09
1.82436e-08
-5.37287e-09
2.03669e-08
-3.74106e-09
2.17832e-08
-2.29411e-09
2.25726e-08
-1.02049e-09
2.28025e-08
9.14165e-11
2.25464e-08
1.05021e-09
2.18676e-08
1.87271e-09
2.08262e-08
2.56838e-09
1.94774e-08
3.14848e-09
1.78724e-08
3.62364e-09
1.60575e-08
4.00392e-09
1.40754e-08
4.29875e-09
1.19645e-08
4.51698e-09
9.75937e-09
4.66681e-09
7.4913e-09
4.75584e-09
5.18804e-09
4.79112e-09
2.87422e-09
4.77918e-09
5.71554e-10
4.72602e-09
-1.70104e-09
4.6372e-09
-3.92724e-09
4.51789e-09
-6.09312e-09
4.37283e-09
-8.18705e-09
4.20645e-09
-1.01995e-08
4.0228e-09
-1.21228e-08
3.82562e-09
-1.39511e-08
3.61842e-09
-1.56804e-08
3.40439e-09
-1.73081e-08
3.18641e-09
-1.88329e-08
2.9671e-09
-2.02549e-08
2.74881e-09
-2.1575e-08
2.5336e-09
-2.27953e-08
2.32329e-09
-2.39187e-08
2.11943e-09
-2.49486e-08
1.92332e-09
-2.58891e-08
1.73598e-09
-2.67446e-08
1.55823e-09
-2.75198e-08
1.39065e-09
-2.82198e-08
1.23361e-09
-2.88496e-08
1.08731e-09
-2.94143e-08
9.51766e-10
-2.9919e-08
8.26873e-10
-3.03686e-08
7.12396e-10
-3.07681e-08
6.08008e-10
-3.11218e-08
5.13317e-10
-3.14341e-08
4.27809e-10
-3.17095e-08
3.50839e-10
-3.19517e-08
2.82021e-10
-3.21643e-08
2.20774e-10
-3.23507e-08
1.66495e-10
-3.25139e-08
1.18595e-10
-3.26567e-08
7.65112e-11
-3.27817e-08
3.97101e-11
-3.28913e-08
7.68169e-12
-3.29874e-08
-2.00578e-11
-3.3072e-08
-4.39849e-11
-3.31468e-08
-6.44392e-11
-3.32131e-08
-8.18757e-11
-3.32725e-08
-9.66367e-11
-3.33259e-08
-1.09032e-10
-3.33745e-08
-1.1935e-10
-3.34191e-08
-1.27856e-10
-3.34606e-08
-1.34774e-10
-3.34997e-08
-1.40298e-10
-3.35369e-08
-1.44597e-10
-3.3573e-08
-1.47813e-10
-3.36083e-08
-1.50063e-10
-3.36434e-08
-1.51441e-10
-3.36787e-08
-1.5202e-10
-3.37146e-08
-1.51853e-10
-3.37516e-08
-1.50974e-10
-3.37901e-08
-1.49403e-10
-3.38305e-08
-1.47141e-10
-3.38734e-08
-1.44182e-10
-3.39191e-08
-1.40511e-10
-3.39683e-08
-1.36101e-10
-3.40215e-08
-1.30952e-10
-3.40793e-08
-1.25052e-10
-3.41425e-08
-1.18504e-10
-3.42116e-08
-1.11399e-10
-3.42873e-08
-1.04017e-10
-3.43702e-08
-9.68693e-11
-3.44604e-08
-9.08379e-11
-3.45577e-08
-8.74305e-11
-3.46607e-08
-8.94266e-11
-3.47662e-08
-1.01421e-10
-3.48669e-08
-1.33352e-10
-3.49499e-08
-2.0082e-10
-3.49837e-08
-3.58204e-10
-3.49465e-08
-6.3335e-10
-3.46923e-08
-1.55129e-09
-2.95298e-09
-3.42856e-08
9.10604e-10
-3.47513e-09
2.83015e-09
-8.14061e-09
5.16094e-09
-1.09372e-08
7.48424e-09
-1.22399e-08
9.50846e-09
-1.23806e-08
1.10277e-08
-1.16379e-08
1.18891e-08
-1.02307e-08
1.19672e-08
-8.31878e-09
1.11468e-08
-6.00966e-09
9.31236e-09
-3.36952e-09
6.34055e-09
-4.32192e-10
2.09851e-09
2.78779e-09
-3.55434e-09
6.28835e-09
-1.07652e-08
1.00738e-08
-1.96846e-08
1.41524e-08
-3.04678e-08
1.85364e-08
-4.32725e-08
2.32404e-08
-5.82544e-08
2.82799e-08
-7.55628e-08
3.36689e-08
-9.53336e-08
3.9415e-08
-1.17678e-07
4.55144e-08
-1.42668e-07
5.19453e-08
-1.70326e-07
5.86619e-08
-2.00607e-07
6.55902e-08
-2.33389e-07
7.26256e-08
-2.68467e-07
7.96347e-08
-3.05546e-07
8.64597e-08
-3.44252e-07
9.29262e-08
-3.84139e-07
9.88527e-08
-4.24705e-07
1.04061e-07
-4.65419e-07
1.08388e-07
-5.05733e-07
1.11693e-07
-5.45114e-07
1.13866e-07
-5.83062e-07
1.14833e-07
-6.19121e-07
1.14556e-07
-6.52901e-07
1.13033e-07
-6.84079e-07
1.10298e-07
-7.12402e-07
1.06412e-07
-7.37692e-07
1.01458e-07
-7.59833e-07
9.55386e-08
-7.78768e-07
8.87658e-08
-7.94492e-07
8.12571e-08
-8.07039e-07
7.31303e-08
-8.16472e-07
6.44997e-08
-8.2288e-07
5.5473e-08
-8.26362e-07
4.61494e-08
-8.27026e-07
3.66188e-08
-8.24983e-07
2.69613e-08
-8.20342e-07
1.72483e-08
-8.13209e-07
7.5451e-09
-8.0369e-07
-2.08896e-09
-7.91875e-07
-1.16048e-08
-7.77826e-07
-2.09638e-08
-7.61608e-07
-3.01248e-08
-7.43296e-07
-3.90376e-08
-7.2297e-07
-4.76473e-08
-7.00725e-07
-5.58941e-08
-6.76662e-07
-6.3712e-08
-6.50902e-07
-7.10294e-08
-6.23583e-07
-7.77703e-08
-5.94863e-07
-8.38572e-08
-5.64921e-07
-8.92139e-08
-5.33957e-07
-9.37699e-08
-5.02188e-07
-9.74645e-08
-4.69846e-07
-1.00252e-07
-4.3717e-07
-1.02102e-07
-4.04404e-07
-1.03007e-07
-3.7179e-07
-1.02981e-07
-3.39559e-07
-1.02056e-07
-3.0793e-07
-1.00285e-07
-2.771e-07
-9.77405e-08
-2.47249e-07
-9.45044e-08
-2.18529e-07
-9.06698e-08
-1.91071e-07
-8.63351e-08
-1.64977e-07
-8.16001e-08
-1.4033e-07
-7.65631e-08
-1.17188e-07
-7.13178e-08
-9.55888e-08
-6.59516e-08
-7.55524e-08
-6.05439e-08
-5.70819e-08
-5.51656e-08
-4.0166e-08
-4.98777e-08
-2.47806e-08
-4.47324e-08
-1.08897e-08
-3.97731e-08
1.55263e-09
-3.50345e-08
1.25999e-08
-3.0544e-08
2.23144e-08
-2.6322e-08
3.07633e-08
-2.23809e-08
3.80173e-08
-1.87278e-08
4.41504e-08
-1.53644e-08
4.92388e-08
-1.22883e-08
5.33595e-08
-9.49355e-09
5.65896e-08
-6.97118e-09
5.90056e-08
-4.71009e-09
6.06826e-08
-2.69753e-09
6.16937e-08
-9.19659e-10
6.21071e-08
6.36836e-10
6.19919e-08
1.98785e-09
6.14121e-08
3.1482e-09
6.04281e-08
4.13248e-09
5.90966e-08
4.95511e-09
5.74706e-08
5.62992e-09
5.55992e-08
6.17016e-09
5.35278e-08
6.5884e-09
5.12981e-08
6.89651e-09
4.89483e-08
7.10569e-09
4.65129e-08
7.22646e-09
4.40234e-08
7.26869e-09
4.15078e-08
7.24164e-09
3.8991e-08
7.15398e-09
3.64951e-08
7.01384e-09
3.40391e-08
6.82883e-09
3.16395e-08
6.60607e-09
2.93101e-08
6.3522e-09
2.70623e-08
6.07339e-09
2.49053e-08
5.7754e-09
2.28462e-08