/*--------------------------------*- C++ -*----------------------------------*\
  =========                 |
  \\      /  F ield         | OpenFOAM: The Open Source CFD Toolbox
   \\    /   O peration     | Website:  https://openfoam.org
    \\  /    A nd           | Version:  8
     \\/     M anipulation  |
\*---------------------------------------------------------------------------*/
FoamFile
{
    version     2.0;
    format      ascii;
    class       volVectorField;
    location    "0.24";
    object      U;
}
// * * * * * * * * * * * * * * * * * * * * * * * * * * * * * * * * * * * * * //

dimensions      [0 1 -1 0 0 0 0];

internalField   nonuniform List<vector> 
12225
(
(0.121988 0.0220486 0)
(0.0733388 0.00433518 0)
(0.0358791 0.000249025 0)
(0.0257824 0.000226235 0)
(0.020318 0.000212428 0)
(0.0156518 0.000152089 0)
(0.0121046 0.000124909 0)
(0.00921799 0.000111108 0)
(0.00672866 0.000101506 0)
(0.00451833 9.5269e-05 0)
(0.00250305 9.14392e-05 0)
(0.000622823 8.90273e-05 0)
(-0.0011625 8.6887e-05 0)
(-0.00287605 8.32101e-05 0)
(-0.00451877 7.73641e-05 0)
(-0.00603995 8.14221e-05 0)
(-0.00772719 0.000129999 0)
(-0.0150059 0.00538567 0)
(0.255589 0.0611104 0)
(0.193198 0.0243 0)
(0.117627 0.007811 0)
(0.086698 0.00382434 0)
(0.0700309 0.00271233 0)
(0.0566558 0.00215033 0)
(0.0462579 0.00177644 0)
(0.0377763 0.00155225 0)
(0.030479 0.00141193 0)
(0.024003 0.00132272 0)
(0.0181008 0.00127078 0)
(0.0125932 0.00124651 0)
(0.00735214 0.00124161 0)
(0.00228535 0.00124704 0)
(-0.0026696 0.00126255 0)
(-0.00759522 0.00140259 0)
(-0.0130781 0.00239684 0)
(-0.025826 0.011437 0)
(0.324107 0.0776531 0)
(0.287701 0.0456184 0)
(0.204078 0.0208649 0)
(0.156317 0.0115384 0)
(0.128697 0.00800079 0)
(0.107337 0.00632727 0)
(0.0904834 0.00526836 0)
(0.076654 0.00460392 0)
(0.0647482 0.00418495 0)
(0.054171 0.00391973 0)
(0.0445236 0.00376582 0)
(0.0355124 0.00369749 0)
(0.0269174 0.00369585 0)
(0.0185615 0.00374756 0)
(0.0102816 0.00387245 0)
(0.00179893 0.00432923 0)
(-0.00750305 0.00646231 0)
(-0.0222953 0.0172856 0)
(0.353991 0.0775408 0)
(0.352078 0.0619981 0)
(0.283317 0.0368099 0)
(0.229068 0.0230617 0)
(0.1932 0.0162762 0)
(0.165376 0.0128735 0)
(0.143059 0.0107887 0)
(0.124553 0.0094533 0)
(0.108549 0.00860128 0)
(0.094282 0.00806279 0)
(0.0812385 0.00775208 0)
(0.0690313 0.00762094 0)
(0.0573592 0.00763915 0)
(0.0459627 0.00779573 0)
(0.0345818 0.0081473 0)
(0.0228164 0.00908373 0)
(0.0102492 0.0122586 0)
(-0.0055543 0.0233833 0)
(0.36302 0.0689151 0)
(0.387791 0.0707654 0)
(0.345153 0.0513365 0)
(0.296814 0.036367 0)
(0.258492 0.026909 0)
(0.227051 0.0215327 0)
(0.201055 0.0181971 0)
(0.179103 0.0160269 0)
(0.159923 0.0146223 0)
(0.142704 0.0137328 0)
(0.126881 0.0132226 0)
(0.112018 0.0130182 0)
(0.0977603 0.0130798 0)
(0.0837919 0.0134053 0)
(0.0697925 0.0140917 0)
(0.0553384 0.0155998 0)
(0.040274 0.019539 0)
(0.0236969 0.0300796 0)
(0.362495 0.0572818 0)
(0.401156 0.072152 0)
(0.384844 0.0612771 0)
(0.351432 0.0486378 0)
(0.317924 0.038392 0)
(0.287186 0.0315592 0)
(0.260249 0.0270521 0)
(0.236748 0.0240335 0)
(0.215814 0.0220427 0)
(0.19677 0.0207761 0)
(0.179108 0.0200567 0)
(0.162407 0.019789 0)
(0.146308 0.0199282 0)
(0.130481 0.0204844 0)
(0.1146 0.0215853 0)
(0.0982963 0.0236928 0)
(0.0816337 0.0281464 0)
(0.0644702 0.0377174 0)
(0.358822 0.0454268 0)
(0.400259 0.0679201 0)
(0.403603 0.0654623 0)
(0.387962 0.0574415 0)
(0.365 0.0486624 0)
(0.339757 0.0416243 0)
(0.315363 0.0364963 0)
(0.292846 0.032876 0)
(0.272089 0.0304172 0)
(0.252767 0.0288406 0)
(0.234556 0.0279615 0)
(0.21714 0.0276772 0)
(0.200217 0.0279451 0)
(0.1835 0.0287881 0)
(0.166714 0.0303481 0)
(0.149592 0.0330345 0)
(0.13235 0.0378381 0)
(0.115067 0.0464324 0)
(0.355027 0.0348783 0)
(0.392372 0.0603771 0)
(0.406653 0.0644639 0)
(0.40618 0.0615723 0)
(0.395807 0.0558551 0)
(0.379508 0.0500661 0)
(0.360982 0.0452561 0)
(0.342222 0.041589 0)
(0.323893 0.03899 0)
(0.306156 0.0373077 0)
(0.288983 0.0364082 0)
(0.272242 0.0362104 0)
(0.255759 0.0366869 0)
(0.239344 0.0378739 0)
(0.222822 0.0399111 0)
(0.206052 0.0431264 0)
(0.189346 0.0481823 0)
(0.172729 0.0559743 0)
(0.35212 0.0262902 0)
(0.382585 0.0516089 0)
(0.400431 0.0598518 0)
(0.409808 0.0612387 0)
(0.410388 0.0590368 0)
(0.403855 0.0555037 0)
(0.393132 0.0519615 0)
(0.380316 0.0489695 0)
(0.366489 0.0467368 0)
(0.352205 0.0452965 0)
(0.33774 0.0446191 0)
(0.323188 0.0446801 0)
(0.308541 0.0454845 0)
(0.293747 0.0470842 0)
(0.278759 0.0496062 0)
(0.263568 0.0532905 0)
(0.248541 0.0585372 0)
(0.23358 0.0657352 0)
(0.350175 0.01971 0)
(0.373665 0.0430484 0)
(0.390418 0.0533748 0)
(0.40432 0.0576216 0)
(0.412183 0.0584212 0)
(0.413744 0.0573825 0)
(0.410711 0.0556631 0)
(0.404637 0.0539408 0)
(0.396528 0.0525921 0)
(0.387057 0.0518024 0)
(0.376675 0.0516553 0)
(0.365652 0.0521993 0)
(0.354137 0.0534837 0)
(0.342215 0.0555789 0)
(0.329972 0.058596 0)
(0.317507 0.0626956 0)
(0.305218 0.0680914 0)
(0.292923 0.0748706 0)
(0.348958 0.0148601 0)
(0.366643 0.0354653 0)
(0.38018 0.0464309 0)
(0.3948 0.0521875 0)
(0.406159 0.0550195 0)
(0.412891 0.0560708 0)
(0.415765 0.0561828 0)
(0.415654 0.0559596 0)
(0.413193 0.0558079 0)
(0.408914 0.0559811 0)
(0.403259 0.0566339 0)
(0.396557 0.0578721 0)
(0.389046 0.059783 0)
(0.380907 0.0624518 0)
(0.372318 0.0659726 0)
(0.36346 0.0704433 0)
(0.354725 0.0759573 0)
(0.345919 0.0824414 0)
(0.348302 0.011478 0)
(0.361997 0.0295825 0)
(0.372158 0.0404396 0)
(0.385579 0.0466843 0)
(0.397659 0.0505281 0)
(0.406574 0.0528954 0)
(0.412662 0.0543434 0)
(0.416372 0.0553517 0)
(0.417999 0.0562924 0)
(0.417851 0.0574182 0)
(0.416254 0.0588992 0)
(0.413494 0.0608614 0)
(0.409812 0.0634068 0)
(0.405418 0.0666225 0)
(0.400523 0.0705845 0)
(0.395337 0.075346 0)
(0.390217 0.0809355 0)
(0.38501 0.087208 0)
(0.347961 0.00896765 0)
(0.358782 0.0246401 0)
(0.365788 0.0350254 0)
(0.37735 0.0412984 0)
(0.388915 0.0456013 0)
(0.398376 0.048776 0)
(0.405927 0.0511592 0)
(0.411842 0.053108 0)
(0.416193 0.0549492 0)
(0.419093 0.0569108 0)
(0.42073 0.0591489 0)
(0.42131 0.0617837 0)
(0.42103 0.0649129 0)
(0.420082 0.0686133 0)
(0.418667 0.0729394 0)
(0.416987 0.0779101 0)
(0.415336 0.083515 0)
(0.413634 0.0895865 0)
(0.347816 0.00692782 0)
(0.356461 0.0200157 0)
(0.360433 0.0295325 0)
(0.369757 0.0355705 0)
(0.380137 0.0399697 0)
(0.389153 0.0435562 0)
(0.396946 0.0465376 0)
(0.403803 0.0491578 0)
(0.409708 0.051691 0)
(0.414641 0.0543347 0)
(0.418681 0.0572175 0)
(0.421953 0.0604355 0)
(0.424591 0.0640654 0)
(0.426741 0.0681614 0)
(0.428563 0.0727509 0)
(0.430222 0.0778239 0)
(0.43192 0.0833402 0)
(0.433667 0.0891505 0)
(0.347798 0.00534171 0)
(0.354985 0.0158631 0)
(0.356387 0.0241588 0)
(0.363518 0.0297521 0)
(0.372529 0.0339833 0)
(0.380646 0.0376297 0)
(0.387919 0.0408571 0)
(0.394734 0.04382 0)
(0.401097 0.046735 0)
(0.406933 0.0497703 0)
(0.412263 0.0530283 0)
(0.417164 0.0565767 0)
(0.421729 0.0604638 0)
(0.426058 0.0647162 0)
(0.43026 0.0693345 0)
(0.434451 0.0742873 0)
(0.438746 0.079517 0)
(0.443216 0.0849129 0)
(0.347841 0.00405845 0)
(0.354168 0.0121588 0)
(0.353653 0.018973 0)
(0.358956 0.0239036 0)
(0.366781 0.027781 0)
(0.374051 0.0312449 0)
(0.380642 0.0344476 0)
(0.38702 0.0374792 0)
(0.393256 0.0404923 0)
(0.399261 0.04362 0)
(0.405024 0.046941 0)
(0.410606 0.0504982 0)
(0.41608 0.0543149 0)
(0.421517 0.058395 0)
(0.426989 0.0627207 0)
(0.432571 0.0672511 0)
(0.438318 0.0719257 0)
(0.444321 0.0766729 0)
(0.347906 0.00293493 0)
(0.35382 0.00875064 0)
(0.352079 0.0138755 0)
(0.356101 0.0178754 0)
(0.363126 0.0212024 0)
(0.369881 0.0242927 0)
(0.376035 0.0272642 0)
(0.382085 0.0301601 0)
(0.388156 0.0330671 0)
(0.394156 0.0360709 0)
(0.400045 0.0392207 0)
(0.405866 0.0425363 0)
(0.411678 0.0460208 0)
(0.417534 0.0496629 0)
(0.42348 0.0534362 0)
(0.429563 0.0573004 0)
(0.435806 0.0612035 0)
(0.442284 0.0651029 0)
(0.347975 0.00181461 0)
(0.353818 0.00530805 0)
(0.351542 0.00850127 0)
(0.354968 0.0112556 0)
(0.361712 0.0137815 0)
(0.368395 0.016285 0)
(0.374521 0.0188188 0)
(0.38058 0.0213888 0)
(0.386738 0.024021 0)
(0.392898 0.0267449 0)
(0.398994 0.0295723 0)
(0.405042 0.032499 0)
(0.411088 0.0355106 0)
(0.417166 0.0385851 0)
(0.423303 0.0416929 0)
(0.429523 0.0447982 0)
(0.435838 0.0478605 0)
(0.442286 0.0508555 0)
(0.348037 0.000488254 0)
(0.35415 0.00122744 0)
(0.352177 0.00205334 0)
(0.355948 0.00321794 0)
(0.363138 0.00469319 0)
(0.370319 0.00639883 0)
(0.376934 0.0082974 0)
(0.383463 0.0103666 0)
(0.390082 0.0125775 0)
(0.39669 0.0148985 0)
(0.403209 0.0173007 0)
(0.409641 0.0197567 0)
(0.416016 0.0222384 0)
(0.422357 0.0247168 0)
(0.428678 0.0271615 0)
(0.43499 0.0295423 0)
(0.4413 0.0318289 0)
(0.447615 0.0340085 0)
(0.348051 -0.00111816 0)
(0.354878 -0.00356556 0)
(0.354416 -0.00529111 0)
(0.359857 -0.00575413 0)
(0.36841 -0.00531814 0)
(0.37672 -0.00436913 0)
(0.384371 -0.00304028 0)
(0.391846 -0.00139486 0)
(0.399288 0.000478101 0)
(0.406593 0.00249066 0)
(0.413697 0.00457964 0)
(0.42061 0.00670012 0)
(0.427365 0.00881455 0)
(0.433984 0.0108894 0)
(0.440482 0.012895 0)
(0.446872 0.0148057 0)
(0.453165 0.0165992 0)
(0.459351 0.0182693 0)
(0.348116 -0.00310264 0)
(0.356287 -0.0090432 0)
(0.358305 -0.0130528 0)
(0.366229 -0.014745 0)
(0.37668 -0.0150278 0)
(0.386497 -0.0145424 0)
(0.395456 -0.0134909 0)
(0.404023 -0.012 0)
(0.412295 -0.010224 0)
(0.420191 -0.00829182 0)
(0.427685 -0.00628748 0)
(0.434816 -0.00426752 0)
(0.441637 -0.00227647 0)
(0.448185 -0.000351002 0)
(0.454493 0.00147924 0)
(0.460591 0.00319055 0)
(0.466505 0.00476474 0)
(0.472238 0.00619284 0)
(0.348334 -0.00592404 0)
(0.359156 -0.0161853 0)
(0.365199 -0.022308 0)
(0.376594 -0.0248489 0)
(0.389404 -0.0255367 0)
(0.400842 -0.0251782 0)
(0.410869 -0.0240295 0)
(0.419929 -0.0223214 0)
(0.428157 -0.0202898 0)
(0.435582 -0.0181046 0)
(0.442294 -0.0158709 0)
(0.448418 -0.0136593 0)
(0.454068 -0.0115214 0)
(0.459335 -0.0094955 0)
(0.46429 -0.00760863 0)
(0.46899 -0.00588032 0)
(0.473473 -0.00432244 0)
(0.477794 -0.0029485 0)
(0.348894 -0.0102753 0)
(0.364635 -0.0258473 0)
(0.376524 -0.0335296 0)
(0.391643 -0.0362318 0)
(0.405884 -0.0366103 0)
(0.417177 -0.0355414 0)
(0.425852 -0.0334533 0)
(0.432613 -0.0307833 0)
(0.437921 -0.0278774 0)
(0.44211 -0.0249453 0)
(0.445478 -0.0221037 0)
(0.448282 -0.0194188 0)
(0.450709 -0.0169284 0)
(0.452892 -0.0146519 0)
(0.454917 -0.0125969 0)
(0.456847 -0.0107647 0)
(0.458705 -0.00915032 0)
(0.460595 -0.00776102 0)
(0.350205 -0.0171961 0)
(0.37413 -0.0386467 0)
(0.392279 -0.0463294 0)
(0.408102 -0.0475425 0)
(0.418992 -0.0458817 0)
(0.424751 -0.0425295 0)
(0.426825 -0.0383636 0)
(0.4267 -0.0340453 0)
(0.425371 -0.0299315 0)
(0.423448 -0.0261689 0)
(0.42132 -0.0227962 0)
(0.419234 -0.0198053 0)
(0.417326 -0.0171706 0)
(0.415662 -0.0148617 0)
(0.414262 -0.0128477 0)
(0.413126 -0.0111013 0)
(0.412212 -0.00959724 0)
(0.411631 -0.0083266 0)
(0.352946 -0.0279172 0)
(0.387408 -0.0538541 0)
(0.40671 -0.0579246 0)
(0.414044 -0.0545834 0)
(0.412734 -0.0486236 0)
(0.406163 -0.0419104 0)
(0.397199 -0.0356083 0)
(0.387804 -0.0301517 0)
(0.378942 -0.0255676 0)
(0.370959 -0.0217478 0)
(0.363945 -0.0185564 0)
(0.357882 -0.0158727 0)
(0.3527 -0.0136022 0)
(0.348303 -0.0116734 0)
(0.344591 -0.0100314 0)
(0.34147 -0.00863364 0)
(0.338828 -0.00744798 0)
(0.336736 -0.00645339 0)
(0.357477 -0.0432626 0)
(0.398374 -0.0678994 0)
(0.404656 -0.0625716 0)
(0.390753 -0.0519502 0)
(0.370871 -0.0414984 0)
(0.350718 -0.0328807 0)
(0.332392 -0.0263663 0)
(0.316708 -0.0214719 0)
(0.303612 -0.0177198 0)
(0.292717 -0.0147799 0)
(0.283651 -0.0124232 0)
(0.276107 -0.0104962 0)
(0.269827 -0.00889874 0)
(0.264595 -0.00756254 0)
(0.260231 -0.00643866 0)
(0.256588 -0.00549026 0)
(0.25352 -0.00469139 0)
(0.251052 -0.00401886 0)
(0.36079 -0.0617621 0)
(0.391405 -0.0740137 0)
(0.366428 -0.0548227 0)
(0.326245 -0.0384355 0)
(0.2927 -0.0272168 0)
(0.266539 -0.02014 0)
(0.245851 -0.0156117 0)
(0.229548 -0.0124536 0)
(0.216621 -0.0101213 0)
(0.206231 -0.00833925 0)
(0.197804 -0.00693294 0)
(0.190932 -0.00579504 0)
(0.185306 -0.0048597 0)
(0.180687 -0.0040828 0)
(0.176883 -0.00343289 0)
(0.173744 -0.00288622 0)
(0.171133 -0.00242668 0)
(0.169046 -0.00203465 0)
(0.349849 -0.0749386 0)
(0.344869 -0.0647432 0)
(0.282952 -0.0355433 0)
(0.22934 -0.0203276 0)
(0.196708 -0.0130563 0)
(0.174288 -0.00943275 0)
(0.157349 -0.00724994 0)
(0.144445 -0.00571341 0)
(0.13446 -0.00459123 0)
(0.126579 -0.00374558 0)
(0.120284 -0.00308189 0)
(0.115225 -0.00254665 0)
(0.111143 -0.00210828 0)
(0.107838 -0.00174523 0)
(0.105157 -0.00144212 0)
(0.102981 -0.00118716 0)
(0.101203 -0.000972759 0)
(0.0998098 -0.00078435 0)
(0.295488 -0.0660818 0)
(0.244168 -0.0388213 0)
(0.168228 -0.0142421 0)
(0.125363 -0.00656452 0)
(0.105043 -0.00405621 0)
(0.0911333 -0.00298691 0)
(0.0806089 -0.00228045 0)
(0.0727669 -0.00176795 0)
(0.066795 -0.00140425 0)
(0.0621358 -0.00113303 0)
(0.0584603 -0.000919608 0)
(0.0555464 -0.000747454 0)
(0.0532295 -0.000606666 0)
(0.0513855 -0.000490148 0)
(0.0499189 -0.000392884 0)
(0.0487564 -0.000310887 0)
(0.0478318 -0.000242051 0)
(0.0471365 -0.000177369 0)
(0.152883 -0.0243444 0)
(0.0953324 -0.00758593 0)
(0.0520052 -0.000732877 0)
(0.0359978 -0.000269192 0)
(0.0298354 -0.000274664 0)
(0.0251649 -0.000202238 0)
(0.0216297 -0.000141797 0)
(0.0190635 -0.000104781 0)
(0.0171358 -8.01841e-05 0)
(0.0156485 -6.12457e-05 0)
(0.0144919 -4.59597e-05 0)
(0.0135912 -3.35457e-05 0)
(0.0128902 -2.33458e-05 0)
(0.0123468 -1.48365e-05 0)
(0.0119287 -7.70705e-06 0)
(0.0116114 -1.45012e-06 0)
(0.0113716 3.03046e-06 0)
(0.0112091 9.8606e-06 0)
(7.44638e-05 -0.000164283 -2.04368e-20)
(0.000799292 -0.000538046 2.58063e-20)
(0.00215286 -0.0008458 0)
(0.00399468 -0.00104425 0)
(0.00610743 -0.00114436 0)
(0.00832063 -0.00116642 -2.55896e-20)
(0.0105095 -0.0011321 0)
(0.0125845 -0.00106134 0)
(0.014484 -0.000970434 0)
(0.0161688 -0.000871502 0)
(0.0176156 -0.000772896 2.53898e-20)
(0.0188118 -0.000680019 0)
(0.0197517 -0.00059604 0)
(0.0204332 -0.000522681 0)
(0.0208556 -0.000460225 0)
(0.0210185 -0.00040888 2.54071e-20)
(0.0209201 -0.000368264 0)
(0.0205571 -0.000336988 0)
(0.0199226 -0.000312765 0)
(0.0190048 -0.000292374 0)
(0.0177859 -0.000271988 0)
(0.0162418 -0.000247785 0)
(0.0143409 -0.000215806 0)
(0.0120443 -0.000171752 2.58739e-20)
(0.00930652 -0.000111482 -2.59928e-20)
(0.00607636 -3.13019e-05 2.61307e-20)
(0.0022994 7.18781e-05 2.62622e-20)
(-0.00208084 0.000200535 0)
(-0.00712139 0.000357259 0)
(-0.0128735 0.000544602 -2.58902e-20)
(-0.0193824 0.000764669 -2.56812e-20)
(-0.0266827 0.00101897 0)
(-0.0347969 0.00130831 0)
(-0.0437315 0.00163252 -2.49247e-20)
(-0.0534755 0.00199001 0)
(-0.0639978 0.00237731 0)
(-0.0752462 0.00278866 2.39997e-20)
(-0.0871469 0.00321579 0)
(-0.0996049 0.00364802 2.33187e-20)
(-0.112505 0.00407264 4.59345e-20)
(-0.125714 0.00447564 0)
(-0.139086 0.00484263 0)
(-0.15246 0.0051598 0)
(-0.165671 0.00541483 0)
(-0.178551 0.00559763 0)
(-0.190932 0.00570083 4.17572e-20)
(-0.202651 0.00572004 4.11095e-20)
(-0.213555 0.00565394 4.04844e-20)
(-0.223499 0.00550398 0)
(-0.232354 0.00527376 -3.93104e-20)
(-0.240004 0.00496777 0)
(-0.246351 0.00459019 3.82479e-20)
(-0.251315 0.00414412 3.77611e-20)
(-0.25483 0.00363299 0)
(-0.256849 0.00306824 0)
(-0.257332 0.0024689 0)
(-0.25628 0.00185158 3.60468e-20)
(-0.253723 0.00122943 0)
(-0.249705 0.000613615 0)
(-0.244292 1.54179e-05 0)
(-0.237571 -0.00055393 0)
(-0.229648 -0.00108374 0)
(-0.220648 -0.0015643 0)
(-0.210713 -0.00198732 0)
(-0.199997 -0.00234626 0)
(-0.188665 -0.0026367 -3.38925e-20)
(-0.176887 -0.00285652 0)
(-0.164835 -0.00300596 0)
(-0.152676 -0.00308752 3.3736e-20)
(-0.140572 -0.00310576 3.37262e-20)
(-0.12867 -0.00306695 0)
(-0.117105 -0.00297859 -3.37469e-20)
(-0.10599 -0.00284901 3.37687e-20)
(-0.0954245 -0.00268686 0)
(-0.085483 -0.00250065 -3.38141e-20)
(-0.0762223 -0.00229845 0)
(-0.0676797 -0.00208757 0)
(-0.0598745 -0.00187436 3.3831e-20)
(-0.0528105 -0.00166413 0)
(-0.0464776 -0.00146112 -3.37755e-20)
(-0.0408546 -0.00126854 0)
(-0.0359111 -0.00108864 3.36519e-20)
(-0.0316102 -0.000922843 3.35631e-20)
(-0.0279101 -0.000771878 3.34564e-20)
(-0.0247663 -0.000635931 6.66646e-20)
(-0.0221325 -0.000514736 -6.6383e-20)
(-0.0199627 -0.00040767 0)
(-0.0182115 -0.000313875 0)
(-0.0168353 -0.000232387 0)
(-0.0157923 -0.0001622 -6.49609e-20)
(-0.0150436 -0.000102267 -6.45426e-20)
(-0.0145524 -5.16265e-05 6.41034e-20)
(-0.0142851 -9.65837e-06 0)
(-0.014213 2.42364e-05 -6.31706e-20)
(-0.0143069 5.3998e-05 -6.26714e-20)
(-0.0145401 7.77653e-05 -6.21609e-20)
(-0.0148914 9.64502e-05 0)
(-0.0153407 0.000110927 0)
(-0.0158699 0.000121809 0)
(-0.0164629 0.000129611 -6.00315e-20)
(-0.0171055 0.000134784 0)
(-0.0177851 0.000137727 0)
(-0.0184906 0.00013879 5.83705e-20)
(-0.0192124 0.000138276 0)
(-0.0199419 0.000136447 0)
(-0.0206718 0.000133531 5.66771e-20)
(-0.0213956 0.000129723 0)
(-0.0221078 0.000125189 0)
(-0.0228037 0.000120075 -5.49651e-20)
(-0.0234793 0.000114502 -5.43921e-20)
(-0.0241311 0.000108578 0)
(-0.0247565 0.000102393 5.32442e-20)
(-0.025353 9.60313e-05 0)
(-0.0259191 8.95708e-05 -5.20952e-20)
(-0.0264533 8.30748e-05 0)
(-0.0269547 7.65977e-05 -5.09466e-20)
(-0.0274229 7.01896e-05 -5.03728e-20)
(-0.0278577 6.38959e-05 0)
(-0.0282592 5.77579e-05 0)
(-0.0286278 5.18139e-05 0)
(-0.0289643 4.60944e-05 0)
(-0.0292695 4.06278e-05 0)
(-0.0295445 3.54379e-05 0)
(-0.0297907 3.05433e-05 0)
(-0.0300093 2.59563e-05 -4.58065e-20)
(-0.0302019 2.16835e-05 4.52398e-20)
(-0.0303702 1.77252e-05 0)
(-0.0305156 1.40763e-05 0)
(-0.0306398 1.07265e-05 0)
(-0.0307444 7.65726e-06 0)
(-0.030831 4.8377e-06 8.48454e-20)
(-0.0309011 2.20114e-06 0)
(-0.0309563 -3.63472e-07 -8.26084e-20)
(-0.0309984 -2.55743e-06 8.14936e-20)
(-0.0310283 -3.71124e-06 0)
(-0.0310469 -4.69878e-06 0)
(-0.0310558 -5.6968e-06 0)
(-0.0310562 -6.64889e-06 -7.7059e-20)
(-0.031049 -7.50729e-06 -7.59576e-20)
(-0.0310352 -8.25611e-06 0)
(-0.0310155 -8.89624e-06 -7.37636e-20)
(-0.0309908 -9.43457e-06 -7.26712e-20)
(-0.0309616 -9.88034e-06 7.1582e-20)
(-0.0309287 -1.02432e-05 0)
(-0.0308925 -1.05259e-05 0)
(-0.0308536 -1.07436e-05 6.83334e-20)
(-0.0308124 -1.09052e-05 0)
(-0.0307692 -1.10181e-05 0)
(-0.0307243 -1.10883e-05 0)
(-0.0306782 -1.11258e-05 0)
(-0.0306309 -1.11364e-05 -6.29863e-20)
(-0.0305828 -1.11253e-05 -6.19274e-20)
(-0.0305339 -1.10972e-05 0)
(-0.0304844 -1.10563e-05 -5.98203e-20)
(-0.0304346 -1.10062e-05 0)
(-0.0303844 -1.09502e-05 0)
(-0.0303339 -1.08914e-05 -5.66874e-20)
(-0.0302833 -1.08327e-05 0)
(-0.0302326 -1.0777e-05 -5.46177e-20)
(-0.0301818 -1.07274e-05 0)
(-0.0301311 -1.0687e-05 0)
(-0.0300803 -1.06599e-05 -5.15426e-20)
(-0.0300295 -1.06517e-05 0)
(-0.0299788 -1.06674e-05 -4.95127e-20)
(-0.029928 -1.07092e-05 0)
(-0.0298771 -1.07913e-05 0)
(-0.0298261 -1.09265e-05 0)
(-0.0297747 -1.11292e-05 4.55033e-20)
(-0.0297227 -1.14203e-05 0)
(-0.0296696 -1.1821e-05 -4.35251e-20)
(-0.0296149 -1.23793e-05 0)
(-0.0295577 -1.31505e-05 0)
(-0.0294964 -1.42206e-05 0)
(-0.0294291 -1.56811e-05 0)
(-0.0293519 -1.78441e-05 0)
(-0.0292584 -2.10781e-05 0)
(-0.0291369 -2.79014e-05 0)
(-0.028968 -3.61176e-05 7.1652e-20)
(-0.0285517 -9.9525e-05 0)
(-0.0275917 -0.000294232 0)
(0.000210654 -0.00163922 6.419e-20)
(0.00181538 -0.00434372 -8.1896e-20)
(0.00441815 -0.00632719 0)
(0.0077295 -0.00756149 5.41416e-20)
(0.0113808 -0.00813808 0)
(0.0150992 -0.00819104 2.68516e-20)
(0.0186855 -0.00785565 -5.35185e-20)
(0.0219913 -0.00725023 -5.33712e-20)
(0.0249071 -0.00646903 0)
(0.0273518 -0.00558145 -5.31956e-20)
(0.0292648 -0.00463499 -2.65882e-20)
(0.0305981 -0.00365973 0)
(0.0313107 -0.00267298 0)
(0.0313656 -0.00168339 0)
(0.0307231 -0.000694976 0)
(0.0293427 0.00029589 -2.68385e-20)
(0.0271825 0.00129605 0)
(0.0241947 0.00231432 5.41227e-20)
(0.0203252 0.0033639 0)
(0.0155106 0.004462 0)
(0.00967784 0.00562841 -5.53507e-20)
(0.0027443 0.00688448 0)
(-0.00538414 0.00825228 5.52838e-20)
(-0.0148086 0.0097519 -2.72768e-20)
(-0.0256315 0.0113987 2.68466e-20)
(-0.0379545 0.0132022 -2.63742e-20)
(-0.051869 0.0151643 -2.58624e-20)
(-0.0674483 0.0172785 0)
(-0.08474 0.0195279 0)
(-0.103758 0.0218859 2.41394e-20)
(-0.124475 0.0243146 -2.34725e-20)
(-0.146818 0.0267659 0)
(-0.170661 0.0291827 0)
(-0.195829 0.0315004 2.16622e-20)
(-0.222096 0.0336503 0)
(-0.249195 0.035563 0)
(-0.276821 0.0371722 -1.99286e-20)
(-0.304644 0.0384183 0)
(-0.332321 0.0392516 1.89226e-20)
(-0.359504 0.0396349 -3.69172e-20)
(-0.385854 0.0395443 0)
(-0.411047 0.0389706 0)
(-0.434785 0.0379178 -6.92952e-20)
(-0.456798 0.0364027 -6.80415e-20)
(-0.476852 0.0344526 -6.69149e-20)
(-0.494748 0.0321037 3.30181e-20)
(-0.510322 0.0293981 -3.24397e-20)
(-0.523445 0.0263827 -9.62748e-20)
(-0.534024 0.0231061 6.35476e-20)
(-0.541995 0.0196173 3.1401e-20)
(-0.547324 0.0159638 0)
(-0.550005 0.0121943 -3.09422e-20)
(-0.550049 0.00836084 3.09403e-20)
(-0.547486 0.00451906 0)
(-0.542414 0.000722961 0)
(-0.534942 -0.00298005 0)
(-0.52517 -0.00654461 -3.00871e-20)
(-0.513213 -0.00993007 0)
(-0.499205 -0.0130988 5.99555e-20)
(-0.483297 -0.0160146 0)
(-0.465658 -0.0186436 5.98911e-20)
(-0.446476 -0.0209554 0)
(-0.425953 -0.0229242 -6.01467e-20)
(-0.404306 -0.0245301 0)
(-0.381765 -0.0257607 6.07298e-20)
(-0.358566 -0.0266113 -3.06192e-20)
(-0.334947 -0.027086 0)
(-0.311149 -0.0271976 -6.22026e-20)
(-0.287403 -0.0269672 -3.13832e-20)
(-0.263932 -0.0264232 -3.17356e-20)
(-0.240942 -0.0256001 0)
(-0.218622 -0.0245372 -3.25665e-20)
(-0.197138 -0.0232764 -3.29261e-20)
(-0.176634 -0.0218606 0)
(-0.157225 -0.0203324 3.37682e-20)
(-0.139005 -0.0187323 -6.84014e-20)
(-0.122041 -0.0170975 0)
(-0.106374 -0.0154615 -3.49617e-20)
(-0.0920258 -0.0138529 0)
(-0.0789951 -0.0122955 1.0692e-19)
(-0.0672639 -0.0108082 0)
(-0.056798 -0.00940534 -1.08475e-19)
(-0.0475509 -0.00809683 -3.6347e-20)
(-0.0394651 -0.00688877 3.65131e-20)
(-0.0324758 -0.00578402 7.32303e-20)
(-0.0265121 -0.00478255 -7.33436e-20)
(-0.0214999 -0.00388231 0)
(-0.017363 -0.00307943 0)
(-0.0140254 -0.0023689 0)
(-0.0114122 -0.00174497 2.18843e-19)
(-0.00945061 -0.00120135 7.26644e-20)
(-0.00807102 -0.000731602 -7.23236e-20)
(-0.00720763 -0.000329467 0)
(-0.00679811 1.13375e-05 -7.14846e-20)
(-0.00678441 0.000300546 7.09495e-20)
(-0.00711364 0.000540858 7.03746e-20)
(-0.00773595 0.000737828 0)
(-0.00860689 0.000896669 0)
(-0.00968571 0.00102199 0)
(-0.0109354 0.00111792 6.78736e-20)
(-0.0123226 0.00118821 0)
(-0.0138172 0.00123622 -1.3309e-19)
(-0.0153924 0.00126497 -1.97616e-19)
(-0.0170243 0.00127713 1.30387e-19)
(-0.0186915 0.00127511 0)
(-0.0203752 0.00126103 6.38283e-20)
(-0.0220589 0.00123679 0)
(-0.0237281 0.00120404 1.24935e-19)
(-0.0253704 0.0011643 -6.17853e-20)
(-0.0269749 0.00111887 -6.11078e-20)
(-0.0285324 0.00106894 0)
(-0.0300354 0.00101556 -1.79294e-19)
(-0.0314776 0.000959684 1.18191e-19)
(-0.0328539 0.00090216 5.8433e-20)
(-0.0341607 0.000843742 0)
(-0.0353952 0.000785107 5.7115e-20)
(-0.0365557 0.000726854 1.69382e-19)
(-0.0376414 0.000669505 0)
(-0.0386523 0.00061352 1.1033e-19)
(-0.0395891 0.000559297 1.09046e-19)
(-0.0404532 0.000507162 1.07769e-19)
(-0.0412466 0.000457388 0)
(-0.0419717 0.000410189 0)
(-0.0426313 0.000365724 0)
(-0.0432285 0.000324095 -5.13613e-20)
(-0.0437667 0.000285358 -5.07396e-20)
(-0.0442493 0.000249519 0)
(-0.04468 0.000216547 -9.89994e-20)
(-0.0450625 0.000186376 -9.77672e-20)
(-0.0454004 0.000158907 0)
(-0.0456974 0.000134006 -9.53162e-20)
(-0.0459569 0.000111497 -1.8819e-19)
(-0.0461823 9.11699e-05 9.28793e-20)
(-0.0463767 7.31631e-05 9.16646e-20)
(-0.0465433 5.79485e-05 0)
(-0.0466853 4.46426e-05 0)
(-0.046805 3.28771e-05 0)
(-0.0469051 2.25447e-05 8.6841e-20)
(-0.0469877 1.35544e-05 -8.56397e-20)
(-0.0470551 5.7961e-06 -1.68885e-19)
(-0.0471091 -8.50124e-07 8.32487e-20)
(-0.0471516 -6.49775e-06 -8.20565e-20)
(-0.047184 -1.12559e-05 -8.08687e-20)
(-0.0472079 -1.52292e-05 0)
(-0.0472244 -1.84933e-05 0)
(-0.0472347 -2.11546e-05 7.73197e-20)
(-0.0472398 -2.32915e-05 0)
(-0.0472405 -2.49731e-05 0)
(-0.0472377 -2.62583e-05 -1.47594e-19)
(-0.0472319 -2.72134e-05 0)
(-0.0472238 -2.78871e-05 -7.14626e-20)
(-0.047214 -2.83219e-05 7.03002e-20)
(-0.0472028 -2.85551e-05 0)
(-0.0471907 -2.86184e-05 -6.79829e-20)
(-0.047178 -2.8539e-05 0)
(-0.0471651 -2.83398e-05 0)
(-0.0471522 -2.80403e-05 6.45305e-20)
(-0.0471396 -2.76571e-05 -1.26771e-19)
(-0.0471276 -2.72044e-05 6.22441e-20)
(-0.0471163 -2.66952e-05 0)
(-0.0471061 -2.61416e-05 0)
(-0.0470972 -2.55566e-05 -5.88383e-20)
(-0.0470897 -2.49564e-05 0)
(-0.0470839 -2.43564e-05 -5.65846e-20)
(-0.0470801 -2.37639e-05 0)
(-0.0470785 -2.32285e-05 0)
(-0.0470792 -2.2797e-05 0)
(-0.0470824 -2.25337e-05 -5.21203e-20)
(-0.0470882 -2.25356e-05 0)
(-0.0470964 -2.29251e-05 4.99105e-20)
(-0.0471066 -2.39577e-05 0)
(-0.0471179 -2.59773e-05 0)
(-0.0471285 -2.95471e-05 -9.32538e-20)
(-0.0471354 -3.55066e-05 9.10838e-20)
(-0.0471322 -4.58308e-05 0)
(-0.0471084 -6.3779e-05 0)
(-0.0470428 -0.00010146 0)
(-0.0469055 -0.00017678 -2.47575e-19)
(-0.0463718 -0.000444686 0)
(-0.0460167 -0.00101005 1.5659e-19)
(0.000241357 -0.00382297 -2.22854e-23)
(0.00199496 -0.00942417 1.08795e-19)
(0.00467608 -0.0131697 0)
(0.00792655 -0.0152998 -1.07744e-19)
(0.0113401 -0.0161091 0)
(0.0146386 -0.0158948 0)
(0.0176276 -0.0149226 1.86751e-23)
(0.0201606 -0.0134104 5.33655e-20)
(0.0221214 -0.0115243 5.33607e-20)
(0.0234132 -0.00938175 5.34531e-20)
(0.0239492 -0.00705982 0)
(0.0236471 -0.00460567 0)
(0.0224242 -0.00204606 -5.40171e-20)
(0.0201945 0.000608758 -1.08485e-19)
(0.0168724 0.00336038 1.08972e-19)
(0.0123653 0.00621522 0)
(0.00657519 0.00918566 1.10429e-19)
(-0.000601 0.0122912 -5.5097e-20)
(-0.00927823 0.0155592 0)
(-0.0195721 0.0190207 1.0672e-19)
(-0.0316056 0.0227099 5.23828e-20)
(-0.0455015 0.0266589 -1.02464e-19)
(-0.0613768 0.0308933 -5.00654e-20)
(-0.0793347 0.0354254 0)
(-0.099454 0.0402491 9.47885e-20)
(-0.121778 0.045336 9.19971e-20)
(-0.146302 0.0506316 0)
(-0.172964 0.0560549 8.62904e-20)
(-0.201636 0.0614984 0)
(-0.232122 0.0668327 8.06897e-20)
(-0.264158 0.0719123 3.90005e-20)
(-0.297418 0.0765842 0)
(-0.331524 0.0806964 0)
(-0.366059 0.084107 0)
(-0.400586 0.086693 0)
(-0.434662 0.0883567 0)
(-0.467852 0.0890298 0)
(-0.499748 0.0886761 6.3855e-20)
(-0.529977 0.0872911 -9.36954e-20)
(-0.558211 0.0848997 0)
(-0.584172 0.0815529 0)
(-0.607632 0.0773227 0)
(-0.628418 0.0722974 -2.96778e-22)
(-0.646405 0.0665763 5.78994e-20)
(-0.661512 0.0602647 1.15096e-19)
(-0.6737 0.0534697 -1.14286e-19)
(-0.682963 0.0462968 -5.69838e-20)
(-0.689324 0.0388474 5.6437e-20)
(-0.692828 0.0312167 3.09105e-22)
(-0.693542 0.0234939 5.64929e-20)
(-0.691541 0.0157633 0)
(-0.686914 0.00810558 5.64378e-20)
(-0.679764 0.000597412 2.85264e-22)
(-0.670238 -0.00669377 0)
(-0.65841 -0.013716 0)
(-0.644373 -0.0204235 -5.55764e-20)
(-0.628235 -0.0267683 0)
(-0.610115 -0.0327005 0)
(-0.590144 -0.0381692 5.55708e-20)
(-0.56847 -0.043125 1.10786e-19)
(-0.545252 -0.0475207 -5.53082e-20)
(-0.520669 -0.0513135 0)
(-0.494914 -0.0544674 5.5786e-20)
(-0.468193 -0.0569551 0)
(-0.440725 -0.0587603 5.68713e-20)
(-0.412736 -0.0598798 5.71066e-20)
(-0.384457 -0.0603239 -1.15664e-19)
(-0.356119 -0.060117 -5.86147e-20)
(-0.327946 -0.0592972 0)
(-0.300154 -0.0579146 1.2023e-19)
(-0.272943 -0.0560293 0)
(-0.246498 -0.0537093 1.85949e-19)
(-0.220982 -0.0510271 1.26061e-19)
(-0.196539 -0.0480576 1.28198e-19)
(-0.173287 -0.0448752 -1.30388e-19)
(-0.151322 -0.0415512 1.98869e-19)
(-0.130718 -0.0381525 0)
(-0.111526 -0.0347395 0)
(-0.0937777 -0.0313656 -1.39047e-19)
(-0.0774844 -0.0280765 -2.11515e-19)
(-0.0626407 -0.0249098 0)
(-0.0492254 -0.0218954 7.22538e-20)
(-0.0372039 -0.0190557 0)
(-0.0265304 -0.0164061 -2.20972e-19)
(-0.0171486 -0.0139558 2.63707e-23)
(-0.00899407 -0.0117082 -2.43479e-23)
(-0.00199708 -0.00966325 1.47537e-19)
(0.0039168 -0.00781736 0)
(0.00882502 -0.00616352 -1.44219e-19)
(0.0128059 -0.00469282 1.67761e-23)
(0.0159376 -0.00339475 0)
(0.0182973 -0.00225787 0)
(0.01996 -0.00127016 0)
(0.0209988 -0.000419156 1.38239e-19)
(0.0214823 0.000307227 0)
(0.021475 0.000921559 0)
(0.02104 0.00143394 0)
(0.0202347 0.00185503 0)
(0.0191123 0.00219483 0)
(0.0177222 0.00246246 1.32358e-19)
(0.0161098 0.00266632 0)
(0.0143165 0.00281406 1.30684e-19)
(0.0123801 0.00291269 1.29873e-19)
(0.0103348 0.00296853 -1.29068e-19)
(0.00821159 0.00298734 0)
(0.00603808 0.00297428 -1.27457e-19)
(0.00383905 0.00293403 0)
(0.00163642 0.00287079 -1.25813e-19)
(-0.000550524 0.00278837 1.2497e-19)
(-0.00270497 0.00269017 3.72327e-19)
(-0.00481243 0.00257928 0)
(-0.0068606 0.00245849 3.66981e-19)
(-0.00883925 0.00233028 1.2126e-19)
(-0.0107399 0.00219692 0)
(-0.0125561 0.00206042 2.36998e-19)
(-0.0142827 0.00192258 2.3416e-19)
(-0.0159164 0.001785 -3.47023e-19)
(-0.017455 0.00164907 0)
(-0.0188977 0.00151601 -1.12901e-19)
(-0.0202448 0.00138685 -1.11532e-19)
(-0.0214975 0.00126247 -3.30522e-19)
(-0.0226578 0.00114355 0)
(-0.0237287 0.00103066 0)
(-0.0247133 0.000924203 0)
(-0.0256157 0.000824445 -1.04846e-19)
(-0.0264401 0.000731538 0)
(-0.0271909 0.00064552 0)
(-0.0278729 0.000566333 1.00944e-19)
(-0.0284908 0.000493841 9.96568e-20)
(-0.0290493 0.000427835 0)
(-0.0295532 0.000368058 0)
(-0.0300071 0.000314214 1.91667e-19)
(-0.0304154 0.000265995 0)
(-0.0307823 0.000222995 -1.86622e-19)
(-0.031112 0.000184715 -1.84113e-19)
(-0.0314084 0.000151001 0)
(-0.031675 0.000121442 0)
(-0.0319151 9.56295e-05 1.7664e-19)
(-0.0321317 7.32075e-05 8.79423e-25)
(-0.0323278 5.38393e-05 8.42149e-25)
(-0.0325059 3.72051e-05 0)
(-0.0326684 2.30113e-05 3.33544e-19)
(-0.0328174 1.09868e-05 0)
(-0.0329547 8.80686e-07 0)
(-0.0330823 -7.54686e-06 0)
(-0.0332015 -1.44994e-05 -1.57017e-19)
(-0.0333137 -2.01639e-05 0)
(-0.0334202 -2.47128e-05 3.04359e-19)
(-0.0335221 -2.82934e-05 1.49772e-19)
(-0.0336202 -3.10434e-05 0)
(-0.0337155 -3.30791e-05 1.44978e-19)
(-0.0338087 -3.45001e-05 0)
(-0.0339005 -3.53919e-05 0)
(-0.0339915 -3.58266e-05 4.13521e-19)
(-0.0340822 -3.58645e-05 -2.70951e-19)
(-0.0341732 -3.55549e-05 0)
(-0.0342648 -3.49377e-05 -2.61535e-19)
(-0.0343577 -3.40444e-05 1.28425e-19)
(-0.0344522 -3.28988e-05 0)
(-0.0345487 -3.15189e-05 0)
(-0.0346478 -2.99176e-05 0)
(-0.0347499 -2.81051e-05 3.57377e-19)