/*--------------------------------*- C++ -*----------------------------------*\
  =========                 |
  \\      /  F ield         | OpenFOAM: The Open Source CFD Toolbox
   \\    /   O peration     | Website:  https://openfoam.org
    \\  /    A nd           | Version:  8
     \\/     M anipulation  |
\*---------------------------------------------------------------------------*/
FoamFile
{
    version     2.0;
    format      ascii;
    class       volScalarField;
    location    "0.76";
    object      p;
}
// * * * * * * * * * * * * * * * * * * * * * * * * * * * * * * * * * * * * * //

dimensions      [0 2 -2 0 0 0 0];

internalField   nonuniform List<scalar> 
12225
(
-0.00315719
-0.00312694
-0.00309739
-0.00307484
-0.00306481
-0.00306984
-0.00309223
-0.0031342
-0.00319833
-0.00328796
-0.00340781
-0.0035653
-0.00377281
-0.00405266
-0.00444655
-0.00503398
-0.00603948
-0.0083866
-0.00315695
-0.00312993
-0.00310343
-0.00308365
-0.00307617
-0.00308361
-0.00310834
-0.0031526
-0.00321901
-0.00331086
-0.00343283
-0.00359211
-0.0038004
-0.00407782
-0.00445917
-0.00500528
-0.00583516
-0.00741738
-0.00315789
-0.0031338
-0.00311068
-0.00309408
-0.00308954
-0.00309975
-0.00312713
-0.00317393
-0.00324272
-0.00333671
-0.00346038
-0.00362036
-0.00382699
-0.0040968
-0.00445514
-0.00493811
-0.00556575
-0.00656018
-0.00316029
-0.00313813
-0.00311786
-0.00310415
-0.00310231
-0.00311505
-0.00314477
-0.00319369
-0.00326427
-0.00335952
-0.00348347
-0.00364182
-0.00384288
-0.00409862
-0.00442423
-0.00483429
-0.00530196
-0.00592708
-0.003164
-0.00314291
-0.00312493
-0.00311379
-0.0031144
-0.00312939
-0.0031611
-0.00321167
-0.00328338
-0.0033789
-0.00350162
-0.003656
-0.00384787
-0.00408436
-0.00437155
-0.00470875
-0.00505444
-0.0054447
-0.00316878
-0.00314812
-0.00313195
-0.00312309
-0.00312589
-0.00314287
-0.00317623
-0.00322799
-0.00330017
-0.00339499
-0.00351503
-0.00366331
-0.00384306
-0.00405689
-0.00430373
-0.00457334
-0.00482384
-0.00506013
-0.00317438
-0.00315365
-0.00313882
-0.00313195
-0.00313667
-0.00315533
-0.00318998
-0.00324242
-0.00331436
-0.0034075
-0.0035235
-0.00366385
-0.00382933
-0.00401874
-0.00422609
-0.00443631
-0.00461327
-0.0047505
-0.00318046
-0.00315928
-0.00314537
-0.00314017
-0.00314651
-0.00316652
-0.00320203
-0.00325461
-0.00332561
-0.00341612
-0.00352686
-0.00365786
-0.00380774
-0.00397248
-0.00414318
-0.00430354
-0.00442537
-0.00450114
-0.00318662
-0.00316475
-0.00315139
-0.00314755
-0.00315518
-0.00317617
-0.00321212
-0.00326429
-0.00333364
-0.00342067
-0.00352516
-0.00364585
-0.00377965
-0.00392071
-0.00405891
-0.00417903
-0.00426077
-0.00429954
-0.00319231
-0.00316972
-0.00315663
-0.00315383
-0.00316244
-0.00318405
-0.00321997
-0.0032712
-0.00333827
-0.00342108
-0.00351863
-0.00362855
-0.00374659
-0.0038659
-0.00397641
-0.00406517
-0.00411857
-0.00413559
-0.00319699
-0.00317372
-0.00316076
-0.00315876
-0.00316803
-0.00318987
-0.00322534
-0.00327511
-0.00333935
-0.00341742
-0.00350763
-0.00360683
-0.00371004
-0.00381011
-0.00389781
-0.00396278
-0.00399656
-0.00400111
-0.00319979
-0.00317607
-0.0031632
-0.00316173
-0.00317133
-0.00319305
-0.00322772
-0.00327575
-0.00333699
-0.00341041
-0.00349383
-0.00358363
-0.00367452
-0.00375951
-0.00383036
-0.00387893
-0.00390007
-0.00389776
-0.00320056
-0.00317718
-0.00316439
-0.00316335
-0.00317313
-0.0031945
-0.00322808
-0.00327406
-0.00333201
-0.00340057
-0.00347724
-0.00355814
-0.00363795
-0.00371014
-0.00376765
-0.00380425
-0.00381711
-0.00381022
-0.00319831
-0.00317616
-0.00316371
-0.00316307
-0.00317287
-0.00319354
-0.00322551
-0.00326878
-0.00332265
-0.00338555
-0.00345475
-0.00352629
-0.0035951
-0.00365532
-0.00370112
-0.00372802
-0.00373466
-0.00372447
-0.00319097
-0.00317117
-0.00315972
-0.00315955
-0.00316915
-0.00318868
-0.00321839
-0.00325814
-0.0033071
-0.00336355
-0.00342473
-0.00348682
-0.00354516
-0.00359467
-0.00363067
-0.00364992
-0.00365172
-0.00363865
-0.00317557
-0.00315967
-0.00315041
-0.00315097
-0.00316015
-0.00317796
-0.0032046
-0.00323987
-0.00328294
-0.0033321
-0.00338475
-0.00343738
-0.00348586
-0.00352587
-0.00355356
-0.00356643
-0.00356374
-0.00354704
-0.0031486
-0.00313865
-0.00313326
-0.00313504
-0.00314356
-0.00315895
-0.00318147
-0.00321101
-0.00324685
-0.00328751
-0.00333068
-0.0033733
-0.00341179
-0.00344244
-0.00346196
-0.00346807
-0.00345961
-0.00343703
-0.0031072
-0.00310542
-0.00310572
-0.0031093
-0.00311675
-0.0031287
-0.00314561
-0.00316756
-0.00319409
-0.00322405
-0.00325554
-0.003286
-0.00331235
-0.0033314
-0.00334018
-0.00333632
-0.0033182
-0.00328529
-0.0030527
-0.00306055
-0.00306737
-0.00307244
-0.00307757
-0.00308407
-0.00309269
-0.00310379
-0.00311726
-0.00313238
-0.00314777
-0.00316143
-0.00317086
-0.00317332
-0.00316611
-0.00314678
-0.00311306
-0.00306345
-0.00301179
-0.00302723
-0.0030388
-0.00304426
-0.00304625
-0.00304635
-0.00304535
-0.00304367
-0.00304136
-0.00303803
-0.00303276
-0.00302417
-0.00301044
-0.00298955
-0.00295944
-0.00291815
-0.00286347
-0.00279439
-0.00299178
-0.00301102
-0.00302475
-0.00303008
-0.00302992
-0.00302569
-0.00301798
-0.00300711
-0.00299311
-0.00297568
-0.00295417
-0.00292755
-0.00289452
-0.00285357
-0.00280324
-0.00274212
-0.00266855
-0.00258127
-0.00298603
-0.00300663
-0.00302108
-0.00302638
-0.00302513
-0.00301826
-0.00300607
-0.00298862
-0.0029658
-0.00293728
-0.00290251
-0.0028607
-0.0028109
-0.00275209
-0.00268329
-0.00260361
-0.00251202
-0.00240757
-0.00298972
-0.00301006
-0.00302455
-0.00303027
-0.00302908
-0.00302128
-0.00300679
-0.0029854
-0.0029568
-0.00292054
-0.00287606
-0.0028227
-0.00275975
-0.00268651
-0.0026024
-0.00250699
-0.00239984
-0.00228054
-0.00299838
-0.00301766
-0.00303212
-0.00303894
-0.00303886
-0.00303158
-0.00301665
-0.00299358
-0.00296186
-0.00292089
-0.00287004
-0.00280866
-0.00273616
-0.00265206
-0.00255603
-0.00244801
-0.00232805
-0.00219627
-0.00300858
-0.00302671
-0.00304158
-0.00305017
-0.00305206
-0.00304639
-0.00303239
-0.00300938
-0.00297661
-0.00293335
-0.00287884
-0.00281241
-0.00273349
-0.00264169
-0.00253685
-0.00241912
-0.00228893
-0.00214691
-0.00301808
-0.00303548
-0.00305145
-0.00306245
-0.00306691
-0.00306356
-0.00305143
-0.00302965
-0.00299731
-0.00295354
-0.00289744
-0.00282825
-0.00274536
-0.00264841
-0.00253731
-0.00241233
-0.00227411
-0.00212372
-0.00302558
-0.00304308
-0.00306098
-0.00307486
-0.00308227
-0.00308167
-0.00307197
-0.00305218
-0.00302127
-0.00297821
-0.00292199
-0.00285172
-0.00276671
-0.00266654
-0.00255116
-0.00242085
-0.00227637
-0.00211908
-0.00303047
-0.00304922
-0.00306991
-0.00308708
-0.00309769
-0.0031001
-0.00309317
-0.00307586
-0.00304705
-0.00300557
-0.00295028
-0.00288015
-0.00279438
-0.00269245
-0.00257425
-0.00244007
-0.00229066
-0.00212753
-0.00303262
-0.00305394
-0.00307817
-0.0030989
-0.00311281
-0.00311833
-0.00311437
-0.00309985
-0.00307358
-0.00303428
-0.00298067
-0.00291157
-0.00282602
-0.00272341
-0.00260352
-0.00246657
-0.00231328
-0.00214517
-0.00303269
-0.00305707
-0.00308454
-0.00310824
-0.00312487
-0.00313294
-0.00313144
-0.00311929
-0.00309525
-0.00305797
-0.00300604
-0.00293815
-0.00285324
-0.00275055
-0.00262978
-0.00249109
-0.00233513
-0.00216341
0.000502809
0.00051672
0.000519826
0.000503047
0.000465735
0.000408796
0.000333318
0.000240603
0.000132101
9.23823e-06
-0.000126659
-0.000274468
-0.00043326
-0.000602299
-0.000781007
-0.000968912
-0.00116559
-0.00137057
-0.00158329
-0.00180299
-0.00202867
-0.00225897
-0.00249218
-0.00272611
-0.00295812
-0.00318507
-0.00340326
-0.00360853
-0.00379619
-0.00396113
-0.00409782
-0.00420049
-0.00426314
-0.00427978
-0.00424452
-0.00415179
-0.00399653
-0.00377439
-0.00348195
-0.00311688
-0.00267819
-0.00216628
-0.00158315
-0.000932417
-0.000219297
0.000549601
0.00136566
0.00221916
0.00309919
0.00399379
0.00489034
0.00577581
0.0066371
0.00746127
0.0082359
0.00894924
0.00959049
0.0101499
0.0106191
0.0109907
0.0112588
0.0114188
0.0114676
0.0114031
0.0112248
0.0109333
0.0105308
0.010021
0.00940883
0.0087011
0.0079062
0.00703433
0.00609751
0.00510957
0.00408602
0.00304383
0.00200112
0.000976622
-1.0997e-05
-0.000943163
-0.00180346
-0.00257719
-0.0032524
-0.00382056
-0.00427698
-0.00462098
-0.0048559
-0.00498872
-0.00502952
-0.00499069
-0.00488612
-0.00473023
-0.00453715
-0.00432004
-0.00409058
-0.00385867
-0.00363238
-0.00341804
-0.00322041
-0.00304286
-0.00288758
-0.00275559
-0.00264686
-0.00256036
-0.00249413
-0.00244546
-0.00241117
-0.00238786
-0.00237215
-0.00236098
-0.00235166
-0.00234201
-0.00233036
-0.0023155
-0.00229669
-0.00227353
-0.00224598
-0.00221424
-0.00217873
-0.00214004
-0.00209886
-0.0020559
-0.00201198
-0.00196783
-0.00192413
-0.00188151
-0.00184047
-0.00180145
-0.00176473
-0.00173052
-0.00169892
-0.00166993
-0.0016435
-0.00161948
-0.00159772
-0.00157799
-0.00156008
-0.00154375
-0.00152874
-0.00151484
-0.0015018
-0.00148943
-0.00147753
-0.00146593
-0.00145447
-0.00144301
-0.00143143
-0.00141965
-0.00140756
-0.00139511
-0.00138223
-0.00136888
-0.00135502
-0.00134064
-0.00132572
-0.00131025
-0.00129423
-0.00127766
-0.00126053
-0.00124286
-0.00122466
-0.00120593
-0.00118668
-0.0011669
-0.00114659
-0.0011257
-0.00110421
-0.00108204
-0.00105912
-0.00103533
-0.00101058
-0.000984713
-0.000957604
-0.000929183
-0.000899383
-0.000868225
-0.000835825
-0.000802808
-0.000771704
-0.00072938
0.000513451
0.000527277
0.000530097
0.000513939
0.000479477
0.000428158
0.000361054
0.000279199
0.000183671
7.5531e-05
-4.42815e-05
-0.000174951
-0.000315823
-0.000466398
-0.000626292
-0.000795198
-0.00097284
-0.00115891
-0.001353
-0.00155454
-0.00176271
-0.00197643
-0.00219424
-0.00241428
-0.00263425
-0.00285136
-0.0030623
-0.00326328
-0.00344996
-0.00361753
-0.00376076
-0.00387403
-0.00395147
-0.0039871
-0.00397493
-0.00390918
-0.0037845
-0.00359613
-0.00334015
-0.00301371
-0.00261517
-0.00214435
-0.00160261
-0.000992968
-0.000319953
0.000410073
0.00118935
0.00200838
0.00285642
0.00372172
0.00459176
0.00545359
0.00629407
0.00710023
0.00785954
0.00856014
0.0091911
0.00974257
0.0102059
0.0105738
0.0108401
0.0110003
0.0110509
0.0109898
0.0108163
0.0105313
0.0101373
0.00963782
0.00903819
0.00834521
0.00756747
0.00671534
0.00580103
0.00483853
0.00384348
0.00283294
0.001825
0.000838288
-0.000108544
-0.00099808
-0.00181408
-0.00254297
-0.00317393
-0.00369968
-0.00411687
-0.00442618
-0.00463215
-0.00474277
-0.00476875
-0.00472277
-0.00461849
-0.00446975
-0.00428971
-0.00409033
-0.00388192
-0.00367304
-0.00347045
-0.00327936
-0.00310359
-0.00294583
-0.00280778
-0.00269023
-0.00259313
-0.0025156
-0.00245597
-0.00241196
-0.00238084
-0.00235967
-0.00234551
-0.00233562
-0.00232761
-0.00231946
-0.00230957
-0.00229679
-0.00228033
-0.00225974
-0.0022349
-0.00220593
-0.00217316
-0.0021371
-0.00209837
-0.00205766
-0.0020157
-0.00197322
-0.0019309
-0.00188935
-0.0018491
-0.00181058
-0.00177413
-0.00173997
-0.00170822
-0.00167895
-0.00165209
-0.00162757
-0.00160524
-0.0015849
-0.00156636
-0.00154939
-0.00153376
-0.00151926
-0.00150565
-0.00149275
-0.00148036
-0.0014683
-0.00145643
-0.0014446
-0.0014327
-0.00142063
-0.00140829
-0.00139562
-0.00138256
-0.00136905
-0.00135506
-0.00134058
-0.00132556
-0.00131002
-0.00129393
-0.0012773
-0.00126013
-0.00124244
-0.00122422
-0.00120548
-0.00118621
-0.00116643
-0.0011461
-0.0011252
-0.0011037
-0.00108153
-0.00105862
-0.00103488
-0.0010102
-0.000984463
-0.000957592
-0.000929484
-0.000900121
-0.000869567
-0.000837991
-0.000806098
-0.000776327
-0.000735866
0.000612749
0.000619255
0.000614727
0.000593318
0.000556319
0.00050535
0.000441452
0.000365482
0.000278261
0.000180535
7.29136e-05
-4.41446e-05
-0.000170337
-0.000305502
-0.000449594
-0.000602639
-0.000764691
-0.000935777
-0.00111583
-0.00130463
-0.00150174
-0.00170643
-0.00191764
-0.00213388
-0.00235323
-0.00257321
-0.00279083
-0.00300251
-0.00320404
-0.00339067
-0.00355708
-0.00369745
-0.00380562
-0.00387513
-0.00389947
-0.00387224
-0.00378738
-0.00363943
-0.00342374
-0.00313674
-0.0027762
-0.00234138
-0.00183321
-0.00125424
-0.000608682
9.71469e-05
0.000855232
0.001656
0.00248852
0.00334081
0.00420005
0.00505298
0.00588617
0.00668635
0.00744075
0.00813734
0.00876504
0.00931393
0.00977533
0.0101419
0.0104078
0.0105682
0.01062
0.0105611
0.0103907
0.0101099
0.00972113
0.00922804
0.00863588
0.00795154
0.00718368
0.00634281
0.00544134
0.00449353
0.00351536
0.00252428
0.00153879
0.000577909
-0.000339444
-0.00119533
-0.00197364
-0.00266106
-0.00324748
-0.00372657
-0.00409628
-0.0043589
-0.00452079
-0.00459175
-0.00458419
-0.00451213
-0.00439011
-0.0042322
-0.00405126
-0.00385835
-0.00366248
-0.00347066
-0.00328803
-0.00311823
-0.00296374
-0.00282618
-0.00270647
-0.00260496
-0.0025214
-0.00245493
-0.0024041
-0.00236694
-0.0023411
-0.00232402
-0.00231314
-0.00230606
-0.00230063
-0.00229502
-0.00228776
-0.00227772
-0.00226411
-0.00224647
-0.0022246
-0.00219855
-0.00216861
-0.0021352
-0.00209889
-0.00206037
-0.0020203
-0.00197941
-0.00193838
-0.00189781
-0.00185827
-0.00182021
-0.00178397
-0.00174982
-0.00171791
-0.00168832
-0.00166105
-0.00163601
-0.0016131
-0.00159215
-0.00157297
-0.00155536
-0.00153911
-0.00152399
-0.00150981
-0.00149636
-0.00148346
-0.00147093
-0.00145863
-0.00144642
-0.00143418
-0.0014218
-0.00140919
-0.00139629
-0.00138302
-0.00136934
-0.0013552
-0.00134059
-0.00132548
-0.00130985
-0.00129369
-0.00127701
-0.00125981
-0.00124208
-0.00122383
-0.00120507
-0.00118579
-0.00116598
-0.00114564
-0.00112473
-0.00110323
-0.00108107
-0.00105819
-0.00103451
-0.00100993
-0.00098437
-0.000957748
-0.000930002
-0.000901136
-0.000871249
-0.000840541
-0.000809737
-0.0007815
-0.000742116
0.000804008
0.000794682
0.000774429
0.00074145
0.000696619
0.000641006
0.000575329
0.000500223
0.000416218
0.000323695
0.000222869
0.000113783
-3.69529e-06
-0.000129857
-0.000265126
-0.000410017
-0.000565089
-0.000730878
-0.00090784
-0.00109627
-0.00129623
-0.00150747
-0.00172934
-0.00196072
-0.00219994
-0.0024447
-0.002692
-0.00293813
-0.00317858
-0.00340812
-0.00362078
-0.00380997
-0.00396859
-0.00408921
-0.00416426
-0.00418629
-0.00414825
-0.00404374
-0.00386736
-0.00361491
-0.00328372
-0.00287284
-0.00238306
-0.00181679
-0.00117874
-0.000475883
0.000283192
0.00108829
0.00192782
0.00278904
0.00365846
0.00452214
0.00536607
0.00617649
0.00694026
0.00764509
0.00827978
0.0088344
0.00930038
0.00967058
0.00993927
0.0101021
0.0101561
0.0100994
0.0099315
0.00965328
0.00926707
0.0087765
0.00818666
0.0075043
0.00673796
0.00589813
0.00499731
0.00405
0.00307259
0.00208314
0.00110093
0.000145929
-0.000761954
-0.00160366
-0.00236183
-0.00302221
-0.00357444
-0.00401224
-0.00433409
-0.0045435
-0.00464867
-0.0046618
-0.00459801
-0.00447403
-0.00430688
-0.00411249
-0.00390478
-0.00369503
-0.00349162
-0.00330025
-0.0031244
-0.00296583
-0.00282528
-0.00270281
-0.0025982
-0.00251099
-0.00244042
-0.00238541
-0.00234446
-0.0023157
-0.00229693
-0.00228582
-0.00228003
-0.00227735
-0.00227583
-0.00227378
-0.00226984
-0.00226295
-0.00225234
-0.00223754
-0.00221835
-0.0021948
-0.00216714
-0.00213578
-0.00210128
-0.00206429
-0.00202552
-0.00198567
-0.00194544
-0.00190547
-0.00186631
-0.00182845
-0.00179226
-0.00175803
-0.00172592
-0.00169604
-0.00166839
-0.00164294
-0.00161957
-0.00159813
-0.00157846
-0.00156035
-0.0015436
-0.00152801
-0.00151337
-0.00149949
-0.00148618
-0.00147328
-0.00146064
-0.00144811
-0.00143558
-0.00142295
-0.00141011
-0.001397
-0.00138356
-0.00136972
-0.00135546
-0.00134073
-0.00132552
-0.00130981
-0.00129359
-0.00127686
-0.00125961
-0.00124185
-0.00122357
-0.00120478
-0.00118548
-0.00116566
-0.00114531
-0.0011244
-0.0011029
-0.00108076
-0.00105793
-0.00103433
-0.00100988
-0.000984502
-0.000958135
-0.000930738
-0.000902332
-0.00087303
-0.000843039
-0.00081305
-0.000785608
-0.000747606
0.00106413
0.00103253
0.000989971
0.000940434
0.000883862
0.00082006
0.000749243
0.000671555
0.000587002
0.000495433
0.000396525
0.000289771
0.000174479
4.9775e-05
-8.53636e-05
-0.000232072
-0.000391541
-0.000564945
-0.000753366
-0.000957693
-0.00117853
-0.00141607
-0.00167002
-0.00193944
-0.00222268
-0.00251724
-0.00281972
-0.00312577
-0.00343005
-0.00372627
-0.00400727
-0.00426515
-0.00449142
-0.00467728
-0.00481384
-0.00489248
-0.00490508
-0.00484444
-0.00470453
-0.0044808
-0.00417049
-0.00377266
-0.00328817
-0.00272029
-0.00207474
-0.00135913
-0.000582906
0.000242763
0.00110528
0.00199095
0.00288532
0.00377362
0.00464108
0.00547336
0.00625688
0.00697908
0.00762867
0.00819577
0.00867202
0.00905055
0.00932603
0.00949448
0.00955322
0.00950073
0.00933665
0.00906184
0.00867855
0.00819029
0.00760186
0.00691968
0.00615202
0.00530914
0.00440347
0.00344961
0.00246431
0.00146623
0.000475558
-0.000486577
-0.00139885
-0.00224064
-0.00299283
-0.00363924
-0.00416788
-0.00457153
-0.00484822
-0.00500179
-0.00504172
-0.00498247
-0.00484232
-0.00464173
-0.00440158
-0.00414143
-0.00387802
-0.00362435
-0.00338934
-0.00317808
-0.00299255
-0.00283253
-0.00269654
-0.00258261
-0.0024888
-0.00241332
-0.00235453
-0.00231076
-0.00228018
-0.00226079
-0.00225036
-0.00224659
-0.00224725
-0.00225023
-0.00225369
-0.00225606
-0.00225605
-0.00225267
-0.00224519
-0.00223317
-0.00221643
-0.00219499
-0.00216913
-0.00213927
-0.00210598
-0.00206995
-0.0020319
-0.00199256
-0.00195266
-0.00191286
-0.00187375
-0.00183583
-0.00179949
-0.00176503
-0.00173265
-0.00170245
-0.00167446
-0.00164863
-0.00162488
-0.00160305
-0.00158298
-0.00156449
-0.00154736
-0.0015314
-0.00151641
-0.00150219
-0.00148857
-0.00147537
-0.00146245
-0.00144967
-0.00143691
-0.00142407
-0.00141104
-0.00139776
-0.00138416
-0.00137019
-0.00135581
-0.00134098
-0.00132568
-0.0013099
-0.00129361
-0.00127682
-0.00125953
-0.00124172
-0.00122342
-0.0012046
-0.00118528
-0.00116545
-0.00114509
-0.00112418
-0.0011027
-0.0010806
-0.00105783
-0.00103433
-0.00101002
-0.000984842
-0.00095874
-0.000931687
-0.000903712
-0.000874932
-0.000845544
-0.000816166
-0.00078897
-0.000752882
0.00136577
0.00130815
0.00123959
0.00117067
0.00110005
0.00102598
0.000947646
0.000864463
0.00077569
0.000680442
0.000577679
0.000466196
0.000344601
0.000211324
6.46319e-05
-9.73219e-05
-0.000276434
-0.000474563
-0.000693418
-0.00093444
-0.00119866
-0.00148654
-0.00179784
-0.00213148
-0.00248536
-0.00285631
-0.00323998
-0.00363081
-0.00402207
-0.00440592
-0.00477357
-0.00511546
-0.00542151
-0.00568144
-0.00588506
-0.00602265
-0.00608528
-0.00606516
-0.00595595
-0.00575309
-0.00545393
-0.00505788
-0.00456663
-0.00398445
-0.00331797
-0.00257575
-0.00176836
-0.000908121
-8.82293e-06
0.000914677
0.00184684
0.00277189
0.00367419
0.00453873
0.00535141
0.00609939
0.00677127
0.00735731
0.0078494
0.0082411
0.00852752
0.00870521
0.00877194
0.00872651
0.00856882
0.00829981
0.00792152
0.00743725
0.00685146
0.00617012
0.00540104
0.00455412
0.00364151
0.00267782
0.00167999
0.000667236
-0.000339413
-0.00131761
-0.00224449
-0.00309757
-0.00385582
-0.00450061
-0.00501739
-0.00539686
-0.00563557
-0.00573656
-0.0057095
-0.00557035
-0.00534017
-0.00504342
-0.00470579
-0.00435191
-0.00400319
-0.00367628
-0.00338231
-0.00312704
-0.00291163
-0.00273405
-0.00259039
-0.00247614
-0.00238703
-0.00231935
-0.00227002
-0.00223636
-0.00221585
-0.00220605
-0.00220455
-0.00220893
-0.00221688
-0.00222634
-0.0022355
-0.00224286
-0.00224719
-0.00224753
-0.00224321
-0.00223383
-0.00221924
-0.00219951
-0.00217495
-0.00214603
-0.00211338
-0.00207772
-0.00203982
-0.00200047
-0.00196042
-0.00192039
-0.00188098
-0.00184271
-0.00180601
-0.00177118
-0.00173843
-0.00170786
-0.00167951
-0.00165333
-0.00162924
-0.00160709
-0.00158671
-0.00156791
-0.00155049
-0.00153425
-0.00151899
-0.00150452
-0.00149066
-0.00147724
-0.00146411
-0.00145113
-0.00143818
-0.00142516
-0.00141198
-0.00139856
-0.00138483
-0.00137074
-0.00135625
-0.00134133
-0.00132594
-0.00131008
-0.00129374
-0.00127689
-0.00125955
-0.0012417
-0.00122336
-0.00120452
-0.00118518
-0.00116533
-0.00114497
-0.00112407
-0.00110262
-0.00108057
-0.00105787
-0.00103448
-0.00101033
-0.000985371
-0.000959547
-0.00093284
-0.000905282
-0.000876984
-0.000848126
-0.000819236
-0.000791989
-0.000758179
0.00167662
0.0015916
0.00149578
0.00140669
0.00132131
0.00123587
0.0011483
0.00105697
0.000960166
0.000856057
0.000742714
0.000618086
0.00047997
0.000326
0.000153674
-3.95989e-05
-0.00025641
-0.000499236
-0.000770293
-0.00107137
-0.00140364
-0.00176748
-0.00216229
-0.00258632
-0.00303653
-0.0035085
-0.0039964
-0.00449301
-0.00498978
-0.00547705
-0.0059442
-0.00637996
-0.00677271
-0.00711082
-0.00738302
-0.00757875
-0.00768853
-0.00770427
-0.0076196
-0.0074301
-0.00713347
-0.00672976
-0.00622171
-0.00561456
-0.00491575
-0.00413501
-0.00328414
-0.00237679
-0.00142805
-0.000454112
0.000528241
0.00150206
0.00245072
0.00335836
0.00421028
0.00499327
0.00569581
0.00630825
0.00682281
0.00723351
0.00753604
0.00772753
0.00780635
0.00777177
0.00762394
0.00736387
0.00699349
0.00651583
0.00593492
0.00525621
0.00448694
0.00363652
0.00271676
0.00174208
0.000729567
-0.000301164
-0.00132829
-0.00232832
-0.00327686
-0.00414956
-0.0049232
-0.00557677
-0.00609302
-0.00645953
-0.00667045
-0.00672698
-0.00663781
-0.0064191
-0.00609366
-0.00568939
-0.00523687
-0.0047666
-0.00430613
-0.00387769
-0.00349662
-0.0031711
-0.00290279
-0.00268851
-0.00252207
-0.00239613
-0.00230353
-0.00223802
-0.00219446
-0.00216865
-0.00215695
-0.00215619
-0.0021635
-0.00217616
-0.00219171
-0.00220799
-0.00222318
-0.00223575
-0.00224451
-0.00224854
-0.00224721
-0.00224017
-0.0022273
-0.00220877
-0.00218493
-0.00215634
-0.0021237
-0.00208778
-0.00204945
-0.00200954
-0.00196887
-0.00192818
-0.00188812
-0.00184923
-0.00181194
-0.00177658
-0.00174335
-0.00171235
-0.00168363
-0.00165712
-0.00163272
-0.0016103
-0.00158968
-0.00157066
-0.00155303
-0.0015366
-0.00152116
-0.00150651
-0.00149247
-0.00147889
-0.0014656
-0.00145247
-0.00143939
-0.00142623
-0.00141293
-0.00139938
-0.00138554
-0.00137136
-0.00135677
-0.00134176
-0.0013263
-0.00131037
-0.00129396
-0.00127706
-0.00125967
-0.00124178
-0.0012234
-0.00120453
-0.00118517
-0.00116531
-0.00114494
-0.00112406
-0.00110264
-0.00108065
-0.00105804
-0.00103478
-0.00101081
-0.000986075
-0.000960539
-0.000934181
-0.000907028
-0.00087918
-0.000850798
-0.000822303
-0.000794844
-0.000763482
0.00196055
0.00184899
0.00172688
0.00161839
0.00151858
0.00142135
0.00132311
0.00122095
0.00111197
0.00099322
0.000861743
0.000714536
0.000548505
0.000360451
0.000147101
-9.48282e-05
-0.00036851
-0.00067686
-0.00102234
-0.00140676
-0.00183104
-0.002295
-0.00279718
-0.00333464
-0.0039029
-0.00449587
-0.00510587
-0.00572373
-0.00633899
-0.00694008
-0.00751464
-0.00804986
-0.00853278
-0.00895069
-0.00929147
-0.00954398
-0.00969836
-0.00974641
-0.00968178
-0.00950025
-0.00919996
-0.00878186
-0.00824938
-0.00760853
-0.00686783
-0.00603817
-0.00513271
-0.00416648
-0.00315607
-0.00211913
-0.00107389
-3.86598e-05
0.000968724
0.00193139
0.00283385
0.0036624
0.00440531
0.00505298
0.00559794
0.00603473
0.00635966
0.00657056
0.00666645
0.00664723
0.00651336
0.006266
0.00590701
0.00543907
0.00486581
0.00419211
0.00342461
0.00257213
0.00164606
0.000660608
-0.0003671
-0.00141709
-0.00246684
-0.0034918
-0.00446612
-0.00536365
-0.00615901
-0.00682884
-0.00735322
-0.00771673
-0.0079102
-0.00793232
-0.00778981
-0.00749778
-0.00707948
-0.00656501
-0.00598907
-0.00538798
-0.00479611
-0.00424268
-0.00374916
-0.00332808
-0.00298337
-0.00271188
-0.00250575
-0.00235487
-0.00224885
-0.00217834
-0.00213557
-0.00211422
-0.00210911
-0.002116
-0.00213125
-0.00215169
-0.00217455
-0.00219748
-0.00221854
-0.00223617
-0.00224914
-0.00225656
-0.00225781
-0.00225261
-0.00224091
-0.00222294
-0.00219917
-0.00217023
-0.00213692
-0.00210012
-0.00206076
-0.00201976
-0.00197799
-0.00193623
-0.00189518
-0.0018554
-0.00181733
-0.00178128
-0.00174748
-0.00171601
-0.00168689
-0.00166006
-0.00163541
-0.00161277
-0.00159197
-0.0015728
-0.00155504
-0.00153849
-0.00152294
-0.00150818
-0.00149405
-0.00148036
-0.00146697
-0.00145374
-0.00144055
-0.0014273
-0.00141389
-0.00140026
-0.00138633
-0.00137205
-0.00135738
-0.0013423
-0.00132676
-0.00131077
-0.00129429
-0.00127734
-0.00125989
-0.00124196
-0.00122354
-0.00120464
-0.00118525
-0.00116538
-0.00114501
-0.00112415
-0.00110277
-0.00108084
-0.00105834
-0.00103521
-0.00101143
-0.000986934
-0.000961691
-0.000935681
-0.000908922
-0.000881491
-0.000853534
-0.000825361
-0.000797595
-0.00076869
0.00218004
0.00204469
0.00189909
0.00177321
0.00165998
0.00155085
0.00144053
0.00132468
0.00119904
0.00105945
0.000901851
0.000722224
0.000516569
0.00028088
1.1186e-05
-0.00029635
-0.000645282
-0.00103869
-0.00147894
-0.00196746
-0.00250448
-0.0030888
-0.00371763
-0.00438648
-0.00508907
-0.00581738
-0.00656177
-0.0073111
-0.00805306
-0.00877435
-0.00946112
-0.0100992
-0.0106746
-0.0111736
-0.0115836
-0.0118928
-0.0120911
-0.0121701
-0.0121235
-0.0119471
-0.0116395
-0.0112024
-0.0106397
-0.00995815
-0.00916734
-0.00827941
-0.00730889
-0.00627235
-0.00518799
-0.00407513
-0.00295368
-0.00184352
-0.000763946
0.000266913
0.00123259
0.00211867
0.00291308
0.00360618
0.00419077
0.0046619
0.00501658
0.0052534
0.00537215
0.0053734
0.00525808
0.00502763
0.00468385
0.00422906
0.00366652
0.00300052
0.00223707
0.00138443
0.000453523
-0.000541683
-0.00158404
-0.00265325
-0.00372614
-0.00477713
-0.00577904
-0.00670399
-0.00752459
-0.00821517
-0.00875316
-0.00912085
-0.00930541
-0.00930256
-0.00911648
-0.00876034
-0.00825657
-0.00763613
-0.00693655
-0.00619905
-0.00546467
-0.0047702
-0.00414456
-0.00360648
-0.00316396
-0.00281545
-0.00255247
-0.00236257
-0.00223213
-0.00214838
-0.00210034
-0.00207911
-0.00207753
-0.00208987
-0.00211149
-0.00213856
-0.00216785
-0.00219674
-0.00222308
-0.00224519
-0.00226181
-0.00227202
-0.00227523
-0.0022712
-0.00225996
-0.00224184
-0.00221741
-0.00218742
-0.00215278
-0.00211447
-0.00207352
-0.00203093
-0.00198762
-0.00194445
-0.00190212
-0.00186121
-0.00182219
-0.00178535
-0.0017509
-0.00171892
-0.00168941
-0.00166228
-0.00163741
-0.00161462
-0.00159371
-0.00157445
-0.00155663
-0.00154003
-0.00152443
-0.00150963
-0.00149545
-0.00148171
-0.00146827
-0.00145497
-0.00144172
-0.00142839
-0.00141491
-0.0014012
-0.00138719
-0.00137284
-0.0013581
-0.00134294
-0.00132733
-0.00131127
-0.00129473
-0.00127771
-0.00126022
-0.00124224
-0.00122378
-0.00120484
-0.00118542
-0.00116554
-0.00114517
-0.00112433
-0.00110299
-0.00108113
-0.00105873
-0.00103576
-0.00101217
-0.000987919
-0.000962971
-0.000937301
-0.000910917
-0.000883872
-0.000856288
-0.00082838
-0.000800259
-0.000773681
0.00229908
0.00214443
0.00197967
0.00183927
0.00171403
0.00159302
0.00146916
0.00133662
0.00118976
0.00102315
0.000831612
0.000610142
0.000353877
5.80907e-05
-0.000281742
-0.000669814
-0.0011098
-0.00160463
-0.00215622
-0.00276523
-0.0034308
-0.00415036
-0.00491952
-0.00573197
-0.00657953
-0.00745224
-0.00833855
-0.00922553
-0.0100992
-0.0109448
-0.0117472
-0.0124911
-0.0131615
-0.0137441
-0.0142254
-0.0145931
-0.0148367
-0.0149476
-0.0149191
-0.0147471
-0.0144307
-0.0139715
-0.0133742
-0.0126461
-0.011798
-0.0108432
-0.00979769
-0.00867967
-0.00750912
-0.00630721
-0.00509576
-0.00389648
-0.00273041
-0.00161719
-0.000574542
0.000382203
0.00124041
0.00199028
0.0026248
0.00313952
0.00353215
0.00380215
0.00395014
0.00397749
0.00388576
0.00367666
0.00335201
0.00291397
0.00236532
0.00170983
0.000952915
0.000102245
-0.000831681
-0.00183514
-0.00289094
-0.00397847
-0.00507389
-0.00615067
-0.00718031
-0.00813335
-0.00898048
-0.0096939
-0.0102486
-0.0106245
-0.010806
-0.0107857
-0.0105648
-0.0101542
-0.00957461
-0.0088567
-0.00803944
-0.00716763
-0.00628803
-0.00544479
-0.00467482
-0.00400427
-0.00344682
-0.00300421
-0.0026686
-0.00242606
-0.00226006
-0.0021543
-0.00209432
-0.00206819
-0.00206638
-0.00208133
-0.00210712
-0.00213909
-0.00217343
-0.00220708
-0.00223767
-0.00226335
-0.00228274
-0.00229489
-0.00229923
-0.00229555
-0.00228397
-0.00226493
-0.0022391
-0.00220737
-0.00217076
-0.00213038
-0.00208734
-0.00204273
-0.00199754
-0.00195266
-0.00190883
-0.00186664
-0.00182655
-0.00178885
-0.00175372
-0.00172122
-0.00169134
-0.00166395
-0.00163891
-0.00161602
-0.00159505
-0.00157578
-0.00155796
-0.00154136
-0.00152577
-0.00151098
-0.00149679
-0.00148304
-0.00146957
-0.00145625
-0.00144295
-0.00142957
-0.00141603
-0.00140225
-0.00138817
-0.00137375
-0.00135893
-0.0013437
-0.00132802
-0.00131189
-0.00129528
-0.0012782
-0.00126065
-0.00124261
-0.00122411
-0.00120513
-0.00118569
-0.00116578
-0.00114542
-0.00112459
-0.00110329
-0.00108151
-0.00105922
-0.0010364
-0.001013
-0.000988993
-0.000964332
-0.000938989
-0.000912955
-0.00088626
-0.000858999
-0.000831311
-0.000802819
-0.000778327
0.00228697
0.00211887
0.00194044
0.00178903
0.00165345
0.00152065
0.00138187
0.00122979
0.00105745
0.000858211
0.000625826
0.000354382
3.82551e-05
-0.00032786
-0.000748859
-0.00122907
-0.00177202
-0.00238019
-0.00305475
-0.00379529
-0.00459961
-0.0054636
-0.0063811
-0.007344
-0.00834226
-0.00936412
-0.0103963
-0.0114244
-0.0124329
-0.0134059
-0.014327
-0.0151799
-0.0159488
-0.0166183
-0.0171743
-0.0176039
-0.0178957
-0.0180408
-0.018032
-0.017865
-0.0175393
-0.0170563
-0.016421
-0.0156417
-0.0147301
-0.0137007
-0.0125711
-0.0113611
-0.0100926
-0.00878888
-0.00747382
-0.00617125
-0.00490419
-0.00369409
-0.00256021
-0.00151908
-0.000584098
0.000234576
0.000930001
0.00149816
0.00193751
0.00224838
0.00243237
0.00249171
0.00242871
0.00224549
0.00194404
0.00152635
0.000994792
0.000352681
-0.000395151
-0.00124156
-0.00217646
-0.00318632
-0.00425389
-0.00535821
-0.00647479
-0.00757614
-0.00863252
-0.00961294
-0.0104863
-0.0112229
-0.0117953
-0.0121813
-0.0123634
-0.0123306
-0.0120818
-0.0116253
-0.0109799
-0.010175
-0.00924983
-0.00825144
-0.00723102
-0.00623913
-0.00532043
-0.00450901
-0.00382536
-0.00327589
-0.0028548
-0.00254774
-0.0023359
-0.00219963
-0.00212092
-0.00208456
-0.00207832
-0.00209257
-0.0021199
-0.00215461
-0.00219217
-0.00222905
-0.00226252
-0.00229053
-0.00231156
-0.00232461
-0.0023291
-0.00232486
-0.0023121
-0.00229135
-0.0022634
-0.00222929
-0.00219016
-0.00214723
-0.0021017
-0.00205475
-0.00200743
-0.00196065
-0.00191519
-0.00187164
-0.00183043
-0.00179185
-0.00175606
-0.00172308
-0.00169287
-0.00166527
-0.00164012
-0.00161718
-0.00159622
-0.00157698
-0.00155921
-0.00154267
-0.00152713
-0.00151237
-0.00149822