/*--------------------------------*- C++ -*----------------------------------*\
  =========                 |
  \\      /  F ield         | OpenFOAM: The Open Source CFD Toolbox
   \\    /   O peration     | Website:  https://openfoam.org
    \\  /    A nd           | Version:  8
     \\/     M anipulation  |
\*---------------------------------------------------------------------------*/
FoamFile
{
    version     2.0;
    format      ascii;
    class       surfaceScalarField;
    location    "0.76";
    object      phi;
}
// * * * * * * * * * * * * * * * * * * * * * * * * * * * * * * * * * * * * * //

dimensions      [0 3 -1 0 0 0 0];

internalField   nonuniform List<scalar> 
24170
(
-2.45484e-12
2.45484e-12
4.79295e-12
-7.24779e-12
2.06139e-11
-1.58209e-11
4.32557e-11
-2.26418e-11
7.14519e-11
-2.81962e-11
1.0444e-10
-3.29885e-11
1.41738e-10
-3.72979e-11
1.83038e-10
-4.12993e-11
2.2817e-10
-4.51323e-11
2.77134e-10
-4.89644e-11
3.30158e-10
-5.30241e-11
3.87759e-10
-5.76006e-11
4.50706e-10
-6.29474e-11
5.1944e-10
-6.87334e-11
5.90366e-10
-7.0926e-11
6.3481e-10
-4.44441e-11
5.52187e-10
8.26231e-11
1.52406e-09
-9.71877e-10
-2.45942e-12
4.91426e-12
2.21155e-11
-3.18227e-11
7.27516e-11
-6.64571e-11
1.44292e-10
-9.41818e-11
2.33043e-10
-1.16948e-10
3.36542e-10
-1.36487e-10
4.5311e-10
-1.53866e-10
5.81507e-10
-1.69696e-10
7.20785e-10
-1.8441e-10
8.70244e-10
-1.98424e-10
1.02937e-09
-2.12151e-10
1.1975e-09
-2.25732e-10
1.37258e-09
-2.38024e-10
1.54697e-09
-2.43126e-10
1.69341e-09
-2.17369e-10
1.71858e-09
-6.96111e-11
1.27221e-09
5.28998e-10
3.39961e-09
-6.0334e-10
2.08456e-12
2.82969e-12
4.89261e-11
-7.86642e-11
1.40122e-10
-1.57653e-10
2.67439e-10
-2.21499e-10
4.24688e-10
-2.74198e-10
6.0745e-10
-3.19249e-10
8.12494e-10
-3.5891e-10
1.03718e-09
-3.94384e-10
1.27913e-09
-4.26361e-10
1.53596e-09
-4.55254e-10
1.8048e-09
-4.80991e-10
2.08102e-09
-5.01952e-10
2.35476e-09
-5.11763e-10
2.60173e-09
-4.901e-10
2.75892e-09
-3.74552e-10
2.66242e-09
2.68842e-11
1.88526e-09
1.30616e-09
5.34516e-09
-6.02911e-11
1.1038e-11
-8.20834e-12
8.59814e-11
-1.53608e-10
2.23964e-10
-2.95636e-10
4.14119e-10
-4.11654e-10
6.47701e-10
-5.07779e-10
9.18087e-10
-5.89635e-10
1.22008e-09
-6.60901e-10
1.54905e-09
-7.23359e-10
1.90036e-09
-7.77671e-10
2.26869e-09
-8.23576e-10
2.64686e-09
-8.59169e-10
3.0233e-09
-8.78385e-10
3.37591e-09
-8.64373e-10
3.6586e-09
-7.72798e-10
3.77229e-09
-4.88241e-10
3.51237e-09
2.86808e-10
2.51099e-09
2.30754e-09
7.25589e-09
6.00259e-10
2.45071e-11
-3.27154e-11
1.33767e-10
-2.62867e-10
3.25045e-10
-4.86914e-10
5.85007e-10
-6.71616e-10
9.02298e-10
-8.2507e-10
1.26784e-09
-9.55177e-10
1.674e-09
-1.06706e-09
2.11348e-09
-1.16284e-09
2.57838e-09
-1.24257e-09
3.05905e-09
-1.30424e-09
3.54206e-09
-1.34218e-09
4.00622e-09
-1.34255e-09
4.41454e-09
-1.2727e-09
4.69892e-09
-1.05718e-09
4.73471e-09
-5.24026e-10
4.3142e-09
7.07313e-10
3.18055e-09
3.44119e-09
9.05105e-09
1.3854e-09
4.23239e-11
-7.50393e-11
1.92285e-10
-4.12829e-10
4.43327e-10
-7.37956e-10
7.79599e-10
-1.00789e-09
1.18706e-09
-1.23253e-09
1.65392e-09
-1.42204e-09
2.1696e-09
-1.58274e-09
2.72339e-09
-1.71663e-09
3.3031e-09
-1.82229e-09
3.89336e-09
-1.8945e-09
4.47277e-09
-1.92159e-09
5.00891e-09
-1.8787e-09
5.44958e-09
-1.71336e-09
5.70906e-09
-1.31666e-09
5.65275e-09
-4.6772e-10
5.10001e-09
1.26006e-09
3.91187e-09
4.62934e-09
1.06854e-08
2.27753e-09
6.41195e-11
-1.39159e-10
2.60902e-10
-6.09611e-10
5.7769e-10
-1.05474e-09
9.95815e-10
-1.42601e-09
1.49843e-09
-1.73515e-09
2.07077e-09
-1.99437e-09
2.6988e-09
-2.21077e-09
3.36766e-09
-2.38549e-09
4.05991e-09
-2.51454e-09
4.7533e-09
-2.58789e-09
5.41742e-09
-2.5857e-09
6.00833e-09
-2.46961e-09
6.4608e-09
-2.16583e-09
6.67917e-09
-1.53503e-09
6.53476e-09
-3.23311e-10
5.89246e-09
1.90236e-09
4.71663e-09
5.80517e-09
1.21304e-08
3.2716e-09
8.92552e-11
-2.28414e-10
3.38179e-10
-8.58535e-10
7.25613e-10
-1.44218e-09
1.22953e-09
-1.92993e-09
1.83012e-09
-2.33574e-09
2.50936e-09
-2.6736e-09
3.24935e-09
-2.95076e-09
4.03046e-09
-3.1666e-09
4.82921e-09
-3.3133e-09
5.61583e-09
-3.3745e-09
6.3507e-09
-3.32057e-09
6.9797e-09
-3.09861e-09
7.42882e-09
-2.61494e-09
7.60146e-09
-1.70768e-09
7.3879e-09
-1.09751e-10
6.70591e-09
2.58435e-09
5.59982e-09
6.91126e-09
1.33662e-08
4.36404e-09
1.16783e-10
-3.45197e-10
4.21708e-10
-1.16346e-09
8.82846e-10
-1.90332e-09
1.47412e-09
-2.5212e-09
2.17251e-09
-3.03413e-09
2.95657e-09
-3.45767e-09
3.80423e-09
-3.79842e-09
4.69066e-09
-4.05302e-09
5.58603e-09
-4.20867e-09
6.45301e-09
-4.24148e-09
7.24371e-09
-4.11127e-09
7.89649e-09
-3.75139e-09
8.33415e-09
-3.0526e-09
8.4678e-09
-1.84133e-09
8.21517e-09
1.42883e-10
7.54548e-09
3.25405e-09
6.55849e-09
7.89824e-09
1.43758e-08
5.54891e-09
1.45403e-10
-4.906e-10
5.0797e-10
-1.52603e-09
1.0431e-09
-2.43845e-09
1.71992e-09
-3.19803e-09
2.51204e-09
-3.82626e-09
3.3945e-09
-4.34013e-09
4.34095e-09
-4.74487e-09
5.32134e-09
-5.03341e-09
6.29969e-09
-5.18702e-09
7.23189e-09
-5.17369e-09
8.06373e-09
-4.94311e-09
8.72979e-09
-4.41746e-09
9.15558e-09
-3.47839e-09
9.26682e-09
-1.95257e-09
9.01237e-09
3.97329e-10
8.40586e-09
3.86056e-09
7.58083e-09
8.72328e-09
1.5142e-08
6.81457e-09
1.73602e-10
-6.64202e-10
5.9223e-10
-1.94465e-09
1.19777e-09
-3.04398e-09
1.95391e-09
-3.95416e-09
2.83075e-09
-4.7031e-09
3.79993e-09
-5.30931e-09
4.83107e-09
-5.77602e-09
5.88934e-09
-6.09168e-09
6.93344e-09
-6.23111e-09
7.91412e-09
-6.15437e-09
8.77362e-09
-5.8026e-09
9.44699e-09
-5.09083e-09
9.86771e-09
-3.89911e-09
9.98052e-09
-2.06538e-09
9.76504e-09
6.12813e-10
9.2695e-09
4.35609e-09
8.64413e-09
9.34865e-09
1.5646e-08
8.14016e-09
1.67178e-10
-8.3138e-10
5.59219e-10
-2.33669e-09
1.11848e-09
-3.60324e-09
1.80942e-09
-4.6451e-09
2.60404e-09
-5.49772e-09
3.4761e-09
-6.18136e-09
4.39732e-09
-6.69724e-09
5.33535e-09
-7.02971e-09
6.25236e-09
-7.14813e-09
7.10458e-09
-7.0066e-09
7.84301e-09
-6.54102e-09
8.41631e-09
-5.66414e-09
8.7775e-09
-4.2603e-09
8.89595e-09
-2.18382e-09
8.77552e-09
7.3324e-10
8.47579e-09
4.65582e-09
8.12675e-09
9.69769e-09
1.58536e-08
7.91919e-09
2.09775e-10
-1.04115e-09
6.96093e-10
-2.82301e-09
1.38002e-09
-4.28716e-09
2.21658e-09
-5.48166e-09
3.17122e-09
-6.45236e-09
4.2118e-09
-7.22194e-09
5.30382e-09
-7.78926e-09
6.40804e-09
-8.13393e-09
7.47943e-09
-8.21952e-09
8.46756e-09
-7.99472e-09
9.31874e-09
-7.3922e-09
9.98105e-09
-6.32645e-09
1.04132e-08
-4.69249e-09
1.05982e-08
-2.36883e-09
1.05605e-08
7.71007e-10
1.03821e-08
4.83417e-09
1.02091e-08
9.87067e-09
1.583e-08
1.02327e-08
2.53745e-10
-1.2949e-09
8.37115e-10
-3.40638e-09
1.64655e-09
-5.0966e-09
2.62636e-09
-6.46147e-09
3.73535e-09
-7.56135e-09
4.93568e-09
-8.42227e-09
6.1872e-09
-9.04078e-09
7.44482e-09
-9.39155e-09
8.65812e-09
-9.43282e-09
9.77286e-09
-9.10946e-09
1.0735e-08
-8.3543e-09
1.14975e-08
-7.08896e-09
1.2031e-08
-5.22603e-09
1.23373e-08
-2.67507e-09
1.24632e-08
6.45114e-10
1.25107e-08
4.78658e-09
1.26347e-08
9.74669e-09
1.54446e-08
1.30201e-08
2.89165e-10
-1.58406e-09
9.48917e-10
-4.06614e-09
1.85359e-09
-6.00127e-09
2.93747e-09
-7.54535e-09
4.15445e-09
-8.77833e-09
5.46316e-09
-9.73098e-09
6.82055e-09
-1.03982e-08
8.17935e-09
-1.07503e-08
9.48839e-09
-1.07419e-08
1.06955e-08
-1.03166e-08
1.17531e-08
-9.41184e-09
1.26261e-08
-7.96204e-09
1.33032e-08
-5.90312e-09
1.38077e-08
-3.17952e-09
1.42074e-08
2.45441e-10
1.46177e-08
4.37625e-09
1.51933e-08
9.1711e-09
1.45322e-08
1.61057e-08
2.95871e-10
-1.87994e-09
9.65574e-10
-4.73584e-09
1.87439e-09
-6.91009e-09
2.95306e-09
-8.62403e-09
4.15602e-09
-9.98129e-09
5.44413e-09
-1.10191e-08
6.77797e-09
-1.1732e-08
8.11568e-09
-1.20881e-08
9.41402e-09
-1.20402e-08
1.06322e-08
-1.15347e-08
1.17379e-08
-1.05176e-08
1.2716e-08
-8.9401e-09
1.35768e-08
-6.76393e-09
1.43648e-08
-3.96753e-09
1.5163e-08
-5.52705e-10
1.60907e-08
3.44853e-09
1.72927e-08
7.96904e-09
1.29051e-08
1.89198e-08
2.39201e-10
-2.11914e-09
7.74204e-10
-5.27084e-09
1.49253e-09
-7.62841e-09
2.33842e-09
-9.46991e-09
3.27878e-09
-1.09217e-08
4.28786e-09
-1.20282e-08
5.3415e-09
-1.27857e-08
6.41573e-09
-1.31623e-08
7.4882e-09
-1.31127e-08
8.54187e-09
-1.25884e-08
9.57052e-09
-1.15463e-08
1.05851e-08
-9.95468e-09
1.16198e-08
-7.79861e-09
1.27361e-08
-5.08384e-09
1.40233e-08
-1.83996e-09
1.5594e-08
1.87789e-09
1.75733e-08
5.98973e-09
1.03946e-08
2.00838e-08
6.82244e-11
-2.18736e-09
2.1143e-10
-5.41405e-09
3.96336e-10
-7.81332e-09
6.11671e-10
-9.68525e-09
8.56685e-10
-1.11667e-08
1.13567e-09
-1.23071e-08
1.45605e-09
-1.3106e-08
1.82834e-09
-1.35346e-08
2.2673e-09
-1.35516e-08
2.79431e-09
-1.31154e-08
3.44045e-09
-1.21924e-08
4.24961e-09
-1.07638e-08
5.28084e-09
-8.82984e-09
6.6088e-09
-6.4118e-09
8.32159e-09
-3.55276e-09
1.05155e-08
-3.16007e-10
1.32872e-08
3.21803e-09
6.9564e-09
1.67254e-08
-2.71292e-10
-1.91607e-09
-8.86279e-10
-4.79906e-09
-1.72227e-09
-6.97733e-09
-2.70799e-09
-8.69952e-09
-3.78945e-09
-1.00852e-08
-4.91494e-09
-1.11817e-08
-6.02907e-09
-1.19919e-08
-7.0705e-09
-1.24931e-08
-7.9712e-09
-1.26509e-08
-8.65645e-09
-1.24301e-08
-9.04546e-09
-1.18034e-08
-9.0523e-09
-1.0757e-08
-8.58761e-09
-9.29453e-09
-7.56114e-09
-7.43827e-09
-5.88543e-09
-5.22847e-09
-3.48036e-09
-2.72108e-09
-2.81067e-10
1.87346e-11
2.90721e-09
3.76813e-09
-3.93114e-10
-1.52295e-09
-1.28313e-09
-3.90905e-09
-2.49722e-09
-5.76324e-09
-3.94317e-09
-7.25358e-09
-5.55734e-09
-8.47103e-09
-7.28247e-09
-9.45654e-09
-9.05859e-09
-1.02158e-08
-1.08197e-08
-1.07321e-08
-1.24931e-08
-1.09775e-08
-1.4001e-08
-1.09222e-08
-1.52624e-08
-1.0542e-08
-1.6196e-08
-9.82339e-09
-1.67235e-08
-8.76699e-09
-1.67728e-08
-7.38899e-09
-1.62808e-08
-5.72051e-09
-1.51963e-08
-3.80554e-09
-1.34795e-08
-1.69802e-09
5.41408e-10
-1.11138e-08
-4.19405e-10
-1.10355e-09
-1.3752e-09
-2.95326e-09
-2.69191e-09
-4.44652e-09
-4.27859e-09
-5.6669e-09
-6.07345e-09
-6.67617e-09
-8.02162e-09
-7.50837e-09
-1.00659e-08
-8.17149e-09
-1.21431e-08
-8.65487e-09
-1.41832e-08
-8.9374e-09
-1.61106e-08
-8.99487e-09
-1.78465e-08
-8.80613e-09
-1.93122e-08
-8.35769e-09
-2.04325e-08
-7.64673e-09
-2.11389e-08
-6.68252e-09
-2.13733e-08
-5.48617e-09
-2.10895e-08
-4.08929e-09
-2.02558e-08
-2.53174e-09
-8.59097e-10
-1.88553e-08
-3.72712e-10
-7.30837e-10
-1.23697e-09
-2.089e-09
-2.4472e-09
-3.23629e-09
-3.92752e-09
-4.18659e-09
-5.6252e-09
-4.97848e-09
-7.49351e-09
-5.64006e-09
-9.48404e-09
-6.18096e-09
-1.15432e-08
-6.59571e-09
-1.36112e-08
-6.86943e-09
-1.56225e-08
-6.98352e-09
-1.75081e-08
-6.92049e-09
-1.9198e-08
-6.66778e-09
-2.06245e-08
-6.22031e-09
-2.17251e-08
-5.58186e-09
-2.24461e-08
-4.7652e-09
-2.27442e-08
-3.79121e-09
-2.25885e-08
-2.68739e-09
-1.48645e-09
-2.19612e-08
-2.92983e-10
-4.37855e-10
-9.94268e-10
-1.38771e-09
-2.00024e-09
-2.23032e-09
-3.25306e-09
-2.93377e-09
-4.71012e-09
-3.52142e-09
-6.33374e-09
-4.01644e-09
-8.08565e-09
-4.42905e-09
-9.92383e-09
-4.75753e-09
-1.18011e-08
-4.99216e-09
-1.36652e-08
-5.11941e-09
-1.546e-08
-5.12572e-09
-1.71274e-08
-5.00038e-09
-1.86101e-08
-4.73762e-09
-1.98542e-08
-4.33775e-09
-2.08119e-08
-3.80755e-09
-2.14433e-08
-3.15976e-09
-2.17186e-08
-2.41214e-09
-1.58682e-09
-2.16182e-08
-2.07301e-10
-2.30554e-10
-7.31642e-10
-8.63373e-10
-1.50953e-09
-1.45242e-09
-2.49861e-09
-1.94469e-09
-3.66501e-09
-2.35502e-09
-4.97924e-09
-2.70221e-09
-6.41242e-09
-2.99587e-09
-7.93346e-09
-3.23649e-09
-9.50747e-09
-3.41815e-09
-1.10953e-08
-3.53162e-09
-1.26539e-08
-3.56706e-09
-1.41382e-08
-3.51612e-09
-1.55023e-08
-3.37349e-09
-1.67022e-08
-3.13784e-09
-1.76976e-08
-2.81215e-09
-1.84538e-08
-2.40356e-09
-1.89432e-08
-1.92278e-09
-1.38374e-09
-1.91463e-08
-1.31199e-10
-9.93548e-11
-4.9635e-10
-4.98222e-10
-1.06321e-09
-8.85562e-10
-1.80066e-09
-1.20724e-09
-2.68191e-09
-1.47377e-09
-3.68444e-09
-1.69968e-09
-4.78733e-09
-1.89298e-09
-5.96877e-09
-2.05504e-09
-7.20437e-09
-2.18255e-09
-8.46638e-09
-2.26961e-09
-9.72382e-09
-2.30962e-09
-1.09433e-08
-2.29663e-09
-1.20903e-08
-2.22648e-09
-1.31308e-08
-2.09737e-09
-1.40327e-08
-1.91025e-09
-1.47675e-08
-1.66872e-09
-1.53116e-08
-1.37872e-09
-1.04832e-09
-1.5647e-08
-7.173e-11
-2.76247e-11
-3.08779e-10
-2.61173e-10
-6.99205e-10
-4.95137e-10
-1.21953e-09
-6.86908e-10
-1.84888e-09
-8.44423e-10
-2.57063e-09
-9.77941e-10
-3.37033e-09
-1.09328e-09
-4.23352e-09
-1.19185e-09
-5.14412e-09
-1.27195e-09
-6.08359e-09
-1.33014e-09
-7.03083e-09
-1.36238e-09
-7.96257e-09
-1.36489e-09
-8.85424e-09
-1.33481e-09
-9.681e-09
-1.27061e-09
-1.04189e-08
-1.17231e-09
-1.10462e-08
-1.04149e-09
-1.15438e-08
-8.81129e-10
-6.954e-10
-1.18967e-08
-3.05076e-11
2.88286e-12
-1.72605e-10
-1.19076e-10
-4.24771e-10
-2.42971e-10
-7.69056e-10
-3.42623e-10
-1.18986e-09
-4.23616e-10
-1.67558e-09
-4.92221e-10
-2.21687e-09
-5.51996e-10
-2.80478e-09
-6.03937e-10
-3.42945e-09
-6.47281e-10
-4.07933e-09
-6.80265e-10
-4.74096e-09
-7.00738e-10
-5.39923e-09
-7.06628e-10
-6.03776e-09
-6.96277e-10
-6.6397e-09
-6.68673e-10
-7.18844e-09
-6.23573e-10
-7.66839e-09
-5.61537e-10
-8.06566e-09
-4.83856e-10
-3.92352e-10
-8.36871e-09
-6.10836e-12
8.99122e-12
-8.25443e-11
-4.26396e-11
-2.31162e-10
-9.43532e-11
-4.38749e-10
-1.35036e-10
-6.9465e-10
-1.67716e-10
-9.91495e-10
-1.95375e-10
-1.32381e-09
-2.19678e-10
-1.68662e-09
-2.41126e-10
-2.07446e-09
-2.59443e-10
-2.48081e-09
-2.73915e-10
-2.89791e-09
-2.83642e-10
-3.3168e-09
-2.87731e-10
-3.72764e-09
-2.85443e-10
-4.12003e-09
-2.76283e-10
-4.48355e-09
-2.60056e-10
-4.80819e-09
-2.3689e-10
-5.08485e-09
-2.07197e-10
-1.71579e-10
-5.30562e-09
4.5627e-12
4.42851e-12
-2.95672e-11
-8.50974e-12
-1.03201e-10
-2.07193e-11
-2.0814e-10
-3.00964e-11
-3.38334e-10
-3.75218e-11
-4.89906e-10
-4.38042e-11
-6.60204e-10
-4.93793e-11
-8.46946e-10
-5.43843e-11
-1.04763e-09
-5.87626e-11
-1.25919e-09
-6.23486e-11
-1.47791e-09
-6.49281e-11
-1.69935e-09
-6.62838e-11
-1.91857e-09
-6.62284e-11
-2.13022e-09
-6.46274e-11
-2.32887e-09
-6.14127e-11
-2.50917e-09
-5.65883e-11
-2.66616e-09
-5.02045e-11
-4.23675e-11
-2.79537e-09
4.42851e-12
-4.08123e-12
-2.48006e-11
-5.48969e-11
-9.24187e-11
-1.36223e-10
-1.85602e-10
-2.39986e-10
-2.98749e-10
-3.61098e-10
-4.26026e-10
-4.9231e-10
-5.58538e-10
-6.23165e-10
-6.84578e-10
-7.41166e-10
-7.91371e-10
-8.33738e-10
5.95403e-11
-5.95403e-11
2.08561e-10
-1.49021e-10
4.11375e-10
-2.02814e-10
6.33913e-10
-2.22538e-10
8.48762e-10
-2.14849e-10
1.03485e-09
-1.86088e-10
1.17661e-09
-1.41762e-10
1.26307e-09
-8.64538e-11
1.28688e-09
-2.38135e-11
1.24339e-09
4.34925e-11
1.12997e-09
1.13414e-10
9.45237e-10
1.84736e-10
6.8849e-10
2.56746e-10
3.59304e-10
3.29186e-10
-4.28234e-11
4.02128e-10
-5.18704e-10
4.75881e-10
-1.06957e-09
5.50866e-10
-1.69707e-09
6.275e-10
-2.40322e-09
7.06145e-10
-3.19023e-09
7.87012e-10
-4.06033e-09
8.70102e-10
-5.01549e-09
9.55158e-10
-6.05713e-09
1.04164e-09
-7.18583e-09
1.1287e-09
-8.40104e-09
1.21521e-09
-9.70078e-09
1.29974e-09
-1.10814e-08
1.38061e-09
-1.25373e-08
1.4559e-09
-1.40608e-08
1.52351e-09
-1.5642e-08
1.58122e-09
-1.72687e-08
1.62672e-09
-1.89264e-08
1.65766e-09
-2.05982e-08
1.67181e-09
-2.22652e-08
1.66703e-09
-2.39067e-08
1.64142e-09
-2.55001e-08
1.5934e-09
-2.70218e-08
1.52175e-09
-2.84476e-08
1.42573e-09
-2.97526e-08
1.30509e-09
-3.09128e-08
1.16017e-09
-3.19047e-08
9.91903e-10
-3.27065e-08
8.01792e-10
-3.32984e-08
5.91932e-10
-3.36634e-08
3.6496e-10
-3.37877e-08
1.24291e-10
-3.36595e-08
-1.28152e-10
-3.32729e-08
-3.8664e-10
-3.26251e-08
-6.47849e-10
-3.17172e-08
-9.07806e-10
-3.05548e-08
-1.16248e-09
-2.91467e-08
-1.40811e-09
-2.75054e-08
-1.64125e-09
-2.56465e-08
-1.85889e-09
-2.3588e-08
-2.0585e-09
-2.13499e-08
-2.23812e-09
-1.89536e-08
-2.39633e-09
-1.64213e-08
-2.53227e-09
-1.37757e-08
-2.64557e-09
-1.10394e-08
-2.73629e-09
-8.23463e-09
-2.80482e-09
-5.38292e-09
-2.8517e-09
-2.50541e-09
-2.87751e-09
3.77188e-10
-2.8826e-09
3.24488e-09
-2.8677e-09
6.07763e-09
-2.83274e-09
8.85475e-09
-2.77712e-09
1.15553e-08
-2.70057e-09
1.41576e-08
-2.60231e-09
1.66389e-08
-2.48122e-09
1.89749e-08
-2.33604e-09
2.11404e-08
-2.16555e-09
2.31092e-08
-1.96879e-09
2.48545e-08
-1.74528e-09
2.63498e-08
-1.49528e-09
2.75698e-08
-1.22001e-09
2.84916e-08
-9.21846e-10
2.90961e-08
-6.04501e-10
2.93695e-08
-2.73307e-10
2.93026e-08
6.68228e-11
2.88975e-08
4.05158e-10
2.81619e-08
7.35562e-10
2.71136e-08
1.04829e-09
2.57795e-08
1.33412e-09
2.41952e-08
1.58428e-09
2.24042e-08
1.79103e-09
2.04559e-08
1.94832e-09
1.84036e-08
2.05224e-09
1.63022e-08
2.10142e-09
1.4205e-08
2.09717e-09
1.21616e-08
2.04342e-09
1.02153e-08
1.94634e-09
8.40142e-09
1.81385e-09
6.74657e-09
1.65486e-09
5.26799e-09
1.47858e-09
3.9742e-09
1.29379e-09
2.86581e-09
1.10839e-09
1.9367e-09
9.29102e-10
1.17529e-09
7.61414e-10
5.6557e-10
6.09719e-10
8.81727e-11
4.77398e-10
-2.7869e-10
3.66863e-10
-5.58061e-10
2.79371e-10
-7.72894e-10
2.14833e-10
-9.44634e-10
1.71741e-10
-1.09186e-09
1.47229e-10
-1.22925e-09
1.37392e-10
-1.36705e-09
1.37791e-10
-1.51107e-09
1.4402e-10
-1.66325e-09
1.52188e-10
-1.82249e-09
1.59235e-10
-1.98554e-09
1.63051e-10
-2.14797e-09
1.62429e-10
-2.30489e-09
1.56922e-10
-2.45155e-09
1.46657e-10
-2.58371e-09
1.32155e-10
-2.69788e-09
1.14178e-10
-2.7915e-09
9.36153e-11
-2.8629e-09
7.13979e-11
-2.91133e-09
4.84372e-11
-2.93691e-09
2.55786e-11
-2.94058e-09
3.66443e-12
-2.92367e-09
-1.69073e-11
-2.88832e-09
-3.53504e-11
-2.83688e-09
-5.14418e-11
-2.77195e-09
-6.49242e-11
-2.69626e-09
-7.56933e-11
-2.6125e-09
-8.37625e-11
-2.52325e-09
-8.92434e-11
-2.43093e-09
-9.23266e-11
-2.33767e-09
-9.32603e-11
-2.24534e-09
-9.23289e-11
-2.1555e-09
-8.98355e-11
-2.06942e-09
-8.60846e-11
-1.98805e-09
-8.13695e-11
-1.91209e-09
-7.59624e-11
-1.84198e-09
-7.01073e-11
-1.77796e-09
-6.40161e-11
-1.7201e-09
-5.78677e-11
-1.66829e-09
-5.18075e-11
-1.62234e-09
-4.59501e-11
-1.58196e-09
-4.03816e-11
-1.54679e-09
-3.5163e-11
-1.51646e-09
-3.03343e-11
-1.49054e-09
-2.59172e-11
-1.46862e-09
-2.19197e-11
-1.45028e-09
-1.8338e-11
-1.43512e-09
-1.51605e-11
-1.42275e-09
-1.23688e-11
-1.41281e-09
-9.94063e-12
-1.40496e-09
-7.85075e-12
-1.39889e-09
-6.07243e-12
-1.39431e-09
-4.57852e-12
-1.39097e-09
-3.34258e-12
-1.38863e-09
-2.3357e-12
-1.3871e-09
-1.5319e-12
-1.3862e-09
-9.05578e-13
-1.38577e-09
-4.2618e-13
-1.38571e-09
-6.40055e-14
-1.38588e-09
1.78426e-13
-1.38624e-09
3.59035e-13
-1.38673e-09
4.85339e-13
-1.38732e-09
5.90592e-13
-1.38802e-09
7.03338e-13
-1.38886e-09
8.4047e-13
-1.38988e-09
1.01489e-12
-1.3911e-09
1.22576e-12
-1.39256e-09
1.45219e-12
-1.3942e-09
1.64555e-12
-1.39592e-09
1.72261e-12
-1.39748e-09
1.5595e-12
-1.39848e-09
9.94294e-13
-1.39832e-09
-1.62006e-13
-1.39604e-09
-2.2731e-12
-1.39053e-09
-5.51339e-12
-1.38016e-09
-1.03707e-11
-1.36274e-09
-1.74217e-11
-1.33487e-09
-2.78702e-11
-1.28994e-09
-4.49226e-11
-1.21957e-09
-7.03749e-11
-1.53857e-10
-1.06571e-09
1.11231e-10
-1.70771e-10
3.51256e-10
-3.89046e-10
6.48095e-10
-4.99653e-10
9.44025e-10
-5.18467e-10
1.19128e-09
-4.62108e-10
1.35138e-09
-3.46183e-10
1.39406e-09
-1.84439e-10
1.2961e-09
1.14988e-11
1.0401e-09
2.32188e-10
6.13339e-10
4.70257e-10
6.52979e-12
7.20223e-10
-7.8702e-10
9.78286e-10
-1.77232e-09
1.24205e-09
-2.95337e-09
1.51024e-09
-4.33366e-09
1.78242e-09
-5.91648e-09
2.0587e-09
-7.70505e-09
2.33944e-09
-9.70249e-09
2.62495e-09
-1.19116e-08
2.91523e-09
-1.43343e-08
3.20978e-09
-1.69716e-08
3.50734e-09
-1.98223e-08
3.80583e-09
-2.28829e-08
4.10226e-09
-2.61468e-08
4.39268e-09
-2.96039e-08
4.67225e-09
-3.32394e-08
4.93531e-09
-3.70344e-08
5.17552e-09
-4.09645e-08
5.38601e-09
-4.50005e-08
5.55956e-09
-4.91082e-08
5.68887e-09
-5.32482e-08
5.76671e-09
-5.73768e-08
5.78628e-09
-6.14463e-08
5.74137e-09
-6.5406e-08
5.62668e-09
-6.92026e-08
5.438e-09
-7.27816e-08
5.17247e-09
-7.60886e-08
4.82876e-09
-7.907e-08
4.40713e-09
-8.16745e-08
3.9096e-09
-8.38543e-08
3.3399e-09
-8.55658e-08
2.70345e-09
-8.67713e-08
2.00727e-09
-8.74391e-08
1.25978e-09
-8.75449e-08
4.70731e-10
-8.70712e-08
-3.49407e-10
-8.60098e-08
-1.18959e-09
-8.43593e-08
-2.03711e-09
-8.21268e-08
-2.88035e-09
-7.93268e-08
-3.70786e-09
-7.59805e-08
-4.50875e-09
-7.21155e-08
-5.27304e-09
-6.77649e-08
-5.99188e-09
-6.2966e-08
-6.65777e-09
-5.77599e-08
-7.26468e-09
-5.21898e-08
-7.80812e-09
-4.6301e-08
-8.28516e-09
-4.0139e-08
-8.69429e-09
-3.37492e-08
-9.03531e-09
-2.71765e-08
-9.30905e-09
-2.04642e-08
-9.51709e-09
-1.36545e-08
-9.66138e-09
-6.78818e-09
-9.74387e-09
9.52601e-11
-9.76604e-09
6.95593e-09
-9.72837e-09
1.37539e-08
-9.63068e-09
2.0449e-08
-9.47221e-09
2.69995e-08
-9.25115e-09
3.33616e-08
-8.96438e-09
3.94882e-08
-8.60779e-09
4.53288e-08
-8.17661e-09
5.08291e-08
-7.66592e-09
5.59315e-08
-7.07121e-09
6.05754e-08
-6.3891e-09
6.4698e-08
-5.61796e-09
6.82368e-08
-4.75874e-09
7.11305e-08
-3.81559e-09
7.33225e-08
-2.79651e-09
7.4763e-08
-1.7138e-09
7.54137e-08
-5.83902e-10
7.52485e-08
5.70354e-10
7.42604e-08
1.72366e-09
7.24613e-08
2.84741e-09
6.98852e-08
3.91027e-09
6.65889e-08
4.88051e-09
6.26523e-08
5.72763e-09
5.81762e-08
6.4245e-09
5.32788e-08
6.94959e-09
4.80913e-08
7.2889e-09
4.27512e-08
7.43736e-09
3.7395e-08
7.39958e-09
3.21518e-08
7.18958e-09
2.7136e-08
6.82959e-09
2.24429e-08
6.34799e-09
1.81447e-08
5.77676e-09
1.42897e-08
5.14881e-09
1.09025e-08
4.49562e-09
7.98594e-09
3.84562e-09
5.52413e-09
3.22322e-09
3.48525e-09
2.64859e-09
1.8251e-09
2.13755e-09
4.90518e-10
1.70144e-09
-5.76858e-10
1.34675e-09
-1.43656e-09
1.07453e-09
-2.14508e-09
8.80261e-10
-2.75228e-09
7.54434e-10
-3.29864e-09
6.83751e-10
-3.81375e-09
6.529e-10
-4.31622e-09
6.46494e-10
-4.81479e-09
6.50752e-10
-5.31017e-09
6.54618e-10
-5.79735e-09
6.50233e-10
-6.26778e-09
6.32861e-10
-6.71131e-09
6.00452e-10
-7.1177e-09
5.53044e-10
-7.4777e-09
4.92156e-10
-7.78378e-09
4.20253e-10
-8.03048e-09
3.40319e-10
-8.21462e-09
2.55538e-10
-8.33524e-09
1.69053e-10
-8.39345e-09
8.379e-11
-8.39224e-09
2.45757e-12
-8.33611e-09
-7.30376e-11
-8.23077e-09
-1.40688e-10
-8.08281e-09
-1.99402e-10
-7.89932e-09
-2.4842e-10
-7.68756e-09
-2.87447e-10
-7.45474e-09
-3.16589e-10
-7.20769e-09
-3.36295e-10
-6.95273e-09
-3.47279e-10
-6.69554e-09
-3.50453e-10
-6.44102e-09
-3.46851e-10
-6.19328e-09
-3.37569e-10
-5.95567e-09
-3.23703e-10
-5.73072e-09
-3.06311e-10
-5.52031e-09
-2.86373e-10
-5.32565e-09
-2.6477e-10
-5.1474e-09
-2.4227e-10
-4.98574e-09
-2.19523e-10
-4.84049e-09
-1.97061e-10
-4.71113e-09
-1.75305e-10
-4.59694e-09
-1.54574e-10
-4.49701e-09
-1.35099e-10
-4.41031e-09
-1.17031e-10
-4.33577e-09
-1.00458e-10
-4.27227e-09
-8.54159e-11
-4.21871e-09
-7.18977e-11
-4.17401e-09
-5.98655e-11
-4.13712e-09
-4.92579e-11
-4.10706e-09
-3.99967e-11
-4.08292e-09
-3.19928e-11
-4.06384e-09
-2.51507e-11
-4.04905e-09
-1.93718e-11
-4.03783e-09
-1.45565e-11
-4.02957e-09
-1.06055e-11
-4.02368e-09
-7.42132e-12
-4.01967e-09
-4.90814e-12
-4.01713e-09
-2.96921e-12
-4.01568e-09
-1.5113e-12
-4.01505e-09
-4.50788e-13
-4.01503e-09
3.33912e-13
-4.01545e-09
9.02128e-13
-4.01623e-09
1.37169e-12
-4.01735e-09
1.82918e-12
-4.01885e-09
2.33826e-12
-4.02077e-09
2.93675e-12
-4.02316e-09
3.60958e-12
-4.02597e-09
4.26618e-12
-4.02904e-09
4.71383e-12
-4.03195e-09
4.6334e-12
-4.03395e-09
3.55874e-12
-4.03383e-09
8.78652e-13
-4.02979e-09
-4.20667e-12
-4.0194e-09
-1.26601e-11
-3.99932e-09
-2.55952e-11
-3.96522e-09
-4.44722e-11
-3.91134e-09
-7.13039e-11
-3.82952e-09
-1.09685e-10
-3.70771e-09
-1.66729e-10
-3.52417e-09
-2.53923e-10
-4.3007e-10
-3.24795e-09
9.13027e-11
-2.62074e-10
2.62833e-10
-5.60576e-10
4.34744e-10
-6.71564e-10
5.44177e-10
-6.279e-10
5.40053e-10
-4.57984e-10
3.80771e-10
-1.86902e-10
3.25707e-11
1.63761e-10
-5.31728e-10
5.75798e-10
-1.33388e-09
1.03434e-09
-2.3912e-09
1.52758e-09
-3.7175e-09
2.04653e-09
-5.32388e-09
2.58466e-09
-7.21931e-09
3.13748e-09
-9.41118e-09
3.70211e-09
-1.19056e-08
4.2768e-09
-1.47073e-08
4.86045e-09
-1.782e-08
5.45213e-09
-2.12456e-08
6.05056e-09
-2.49841e-08
6.6537e-09
-2.90327e-08
7.25837e-09
-3.33853e-08
7.85994e-09
-3.80316e-08
8.45216e-09
-4.29564e-08
9.02709e-09
-4.81389e-08
9.57517e-09
-5.3552e-08
1.00853e-08
-5.91621e-08
1.05454e-08
-6.49287e-08
1.09421e-08
-7.08045e-08
1.12619e-08
-7.67361e-08
1.14912e-08
-8.26641e-08
1.16168e-08
-8.85239e-08
1.16265e-08
-9.42473e-08
1.15097e-08
-9.97632e-08
1.12573e-08
-1.05e-07
1.0863e-08
-1.09884e-07
1.03225e-08
-1.14347e-07
9.63497e-09
-1.1832e-07
8.80213e-09
-1.21742e-07
7.82895e-09
-1.24556e-07
6.72336e-09
-1.26712e-07
5.49612e-09
-1.28169e-07
4.16061e-09
-1.28894e-07
2.73249e-09
-1.28864e-07
1.22932e-09
-1.28063e-07
-3.29643e-10
-1.26488e-07
-1.92431e-09
-1.24144e-07
-3.53365e-09
-1.21044e-07
-5.13701e-09
-1.1721e-07
-6.7144e-09
-1.12671e-07
-8.2468e-09
-1.07464e-07
-9.71667e-09
-1.01628e-07
-1.11083e-08
-9.52122e-08
-1.2408e-08
-8.82652e-08
-1.36047e-08
-8.08401e-08
-1.46898e-08
-7.29911e-08
-1.56572e-08
-6.47728e-08
-1.65034e-08
-5.62396e-08
-1.72275e-08
-4.74447e-08
-1.78302e-08
-3.84396e-08
-1.83142e-08
-2.92737e-08
-1.8683e-08
-1.99944e-08
-1.89407e-08
-1.06469e-08
-1.90913e-08
-1.27518e-09
-1.91378e-08
8.07762e-09
-1.90812e-08
1.73677e-08
-1.89208e-08
2.65505e-08
-1.8655e-08
3.55792e-08
-1.82799e-08
4.44039e-08
-1.77891e-08
5.29702e-08
-1.71742e-08
6.12188e-08
-1.64252e-08
6.90844e-08
-1.55315e-08
7.64959e-08
-1.44827e-08
8.33765e-08
-1.32697e-08
8.96445e-08
-1.1886e-08
9.52148e-08
-1.0329e-08
1e-07
-8.60114e-09
1.03915e-07
-6.71141e-09
1.06878e-07
-4.6762e-09
1.08814e-07
-2.52033e-09
1.09662e-07
-2.77691e-10
1.09378e-07
2.00807e-09
1.07939e-07
4.28566e-09
1.05353e-07
6.49683e-09
1.01654e-07
8.57902e-09
9.69139e-08
1.04681e-08
9.12361e-08
1.21023e-08
8.47588e-08
1.34268e-08
7.76492e-08
1.43985e-08
7.00964e-08
1.49901e-08
6.23027e-08
1.51933e-08
5.4472e-08
1.50203e-08
4.67983e-08
1.45033e-08
3.94551e-08
1.36912e-08
3.25861e-08
1.26457e-08
2.63001e-08
1.14348e-08
2.06679e-08
1.01278e-08
1.57231e-08
8.7904e-09
1.14652e-08
7.48118e-09
7.86378e-09
6.24999e-09
4.8646e-09
5.13673e-09
2.39542e-09
4.17062e-09
3.72896e-10
3.36927e-09
-1.29058e-09
2.738e-09
-2.67995e-09
2.26963e-09
-3.8714e-09
1.94589e-09
-4.92805e-09
1.7404e-09
-5.89749e-09
1.62234e-09
-6.81141e-09
1.56041e-09
-7.68696e-09
1.5263e-09
-8.52938e-09
1.49704e-09
-9.33517e-09
1.45601e-09
-1.00952e-08
1.3929e-09
-1.07976e-08
1.30289e-09
-1.14301e-08
1.18552e-09
-1.19814e-08
1.04343e-09
-1.24425e-08
8.81333e-10
-1.28072e-08
7.05074e-10
-1.30727e-08
5.20958e-10
-1.32388e-08
3.35242e-10
-1.33088e-08
1.53758e-10
-1.3288e-08
-1.83242e-11
-1.31843e-08
-1.76806e-10
-1.30067e-08
-3.18282e-10
-1.27656e-08
-4.40461e-10
-1.2472e-08
-5.41996e-10
-1.2137e-08
-6.22441e-10
-1.17715e-08
-6.82153e-10
-1.13856e-08
-7.22158e-10
-1.09889e-08
-7.4401e-10
-1.05897e-08
-7.49642e-10
-1.01953e-08
-7.41224e-10
-9.81185e-09
-7.21034e-10
-9.4442e-09
-6.9135e-10
-9.09616e-09
-6.54357e-10
-8.77045e-09
-6.12082e-10
-8.46887e-09
-5.66346e-10
-8.1924e-09
-5.18739e-10
-7.94132e-09
-4.70607e-10
-7.71532e-09
-4.23055e-10
-7.51367e-09
-3.7696e-10
-7.33525e-09
-3.32992e-10
-7.17871e-09
-2.91635e-10
-7.04253e-09
-2.53211e-10
-6.92508e-09
-2.17911e-10
-6.82468e-09
-1.85815e-10
-6.73966e-09
-1.56918e-10
-6.66838e-09
-1.31146e-10
-6.60926e-09
-1.08376e-10
-6.56081e-09
-8.84483e-11
-6.52162e-09
-7.11818e-11
-6.49039e-09
-5.63787e-11
-6.46593e-09
-4.38342e-11
-6.44715e-09
-3.33413e-11
-6.43306e-09
-2.46929e-11
-6.4228e-09
-1.76851e-11
-6.41559e-09
-1.21168e-11
-6.41077e-09
-7.78906e-12
-6.40777e-09
-4.50575e-12
-6.40615e-09
-2.07116e-12
-6.40554e-09
-2.78621e-13
-6.40569e-09
1.05325e-12
-6.40645e-09
2.12824e-12
-6.40773e-09
3.11547e-12
-6.40954e-09
4.14691e-12
-6.41189e-09
5.28354e-12
-6.41476e-09
6.47561e-12
-6.418e-09
7.51197e-12
-6.42126e-09
7.96785e-12
-6.42378e-09
7.1553e-12
-6.4243e-09
4.08505e-12
-6.42087e-09
-2.5502e-12
-6.41069e-09
-1.43955e-11
-6.38993e-09
-3.34156e-11
-6.35358e-09
-6.19443e-11
-6.29522e-09
-1.02837e-10
-6.20661e-09
-1.59905e-10
-6.07714e-09
-2.39165e-10
-5.89275e-09
-3.5111e-10
-5.63228e-09
-5.14401e-10
-7.64505e-10
-5.29784e-09
2.46355e-11
-2.8671e-10
1.69588e-11
-5.52899e-10
-8.98238e-11
-5.64782e-10
-3.4925e-10
-3.68474e-10
-8.04979e-10
-2.25418e-12
-1.49262e-09
5.00739e-10
-2.44202e-09
1.11316e-09
-3.67805e-09
1.81183e-09
-5.2217e-09
2.57799e-09
-7.09082e-09
3.39669e-09
-9.30059e-09
4.2563e-09
-1.18639e-08
5.14801e-09
-1.47917e-08
6.06519e-09
-1.80924e-08
7.00289e-09
-2.17728e-08
7.95712e-09
-2.58366e-08
8.92426e-09
-3.02848e-08
9.90037e-09
-3.51148e-08
1.08806e-08
-4.03197e-08
1.18586e-08
-4.58873e-08
1.2826e-08
-5.17996e-08
1.37723e-08
-5.80321e-08
1.46846e-08
-6.45527e-08
1.55477e-08
-7.13217e-08
1.63442e-08
-7.82917e-08
1.70553e-08
-8.54073e-08
1.7661e-08
-9.26059e-08
1.81407e-08
-9.98183e-08
1.84742e-08
-1.0697e-07
1.86426e-08
-1.13981e-07
1.86283e-08
-1.20771e-07
1.84166e-08
-1.27257e-07
1.79958e-08
-1.33358e-07
1.73576e-08
-1.38993e-07
1.6498e-08
-1.44087e-07
1.5417e-08
-1.48571e-07
1.4119e-08
-1.52382e-07
1.26128e-08
-1.55464e-07
1.0911e-08
-1.57771e-07
9.03045e-09
-1.59266e-07
6.99102e-09
-1.59921e-07
4.81574e-09
-1.59719e-07
2.53001e-09
-1.58651e-07
1.6125e-10
-1.56718e-07
-2.2617e-09
-1.53933e-07
-4.70957e-09
-1.50313e-07
-7.15338e-09
-1.45886e-07
-9.56488e-09
-1.40683e-07
-1.1917e-08
-1.34745e-07
-1.41845e-08
-1.28118e-07
-1.63443e-08
-1.2085e-07
-1.83762e-08
-1.12995e-07
-2.02631e-08
-1.04608e-07
-2.19912e-08
-9.57473e-08
-2.35506e-08
-8.64696e-08
-2.49349e-08
-7.68321e-08
-2.61409e-08
-6.68904e-08
-2.71692e-08
-5.66979e-08
-2.80227e-08
-4.63053e-08
-2.87067e-08
-3.57607e-08
-2.92276e-08
-2.51088e-08
-2.95926e-08
-1.4392e-08
-2.98081e-08
-3.65044e-09
-2.98794e-08
7.07743e-09
-2.9809e-08
1.77531e-08
-2.95965e-08
2.83364e-08
-2.92382e-08
3.87847e-08
-2.87281e-08
4.90517e-08
-2.80561e-08
5.90862e-08
-2.72086e-08
6.88307e-08
-2.61697e-08
7.82206e-08
-2.49214e-08
8.71839e-08
-2.34459e-08
9.56405e-08
-2.17264e-08
1.03503e-07
-1.97488e-08
1.10678e-07
-1.7504e-08
1.17066e-07
-1.49891e-08
1.22565e-07
-1.221e-08
1.27071e-07
-9.18248e-09
1.30485e-07
-5.93409e-09
1.32713e-07
-2.50545e-09
1.33673e-07
1.04817e-09
1.33301e-07
4.65759e-09
1.31558e-07
8.23961e-09
1.28436e-07
1.17006e-08
1.23965e-07
1.49394e-08
1.18215e-07
1.78524e-08
1.11302e-07
2.03401e-08
1.03386e-07
2.23145e-08
9.46683e-08
2.37076e-08
8.53828e-08
2.44787e-08
7.57833e-08
2.46198e-08
6.6129e-08
2.41576e-08
5.66679e-08
2.31523e-08
4.76217e-08
2.16919e-08
3.9173e-08
1.98835e-08
3.14571e-08
1.78437e-08
2.45585e-08
1.56889e-08
1.85122e-08
1.35275e-08
1.33076e-08
1.14546e-08
8.89626e-09
9.54807e-09
5.2003e-09
7.86658e-09