/*--------------------------------*- C++ -*----------------------------------*\
  =========                 |
  \\      /  F ield         | OpenFOAM: The Open Source CFD Toolbox
   \\    /   O peration     | Website:  https://openfoam.org
    \\  /    A nd           | Version:  8
     \\/     M anipulation  |
\*---------------------------------------------------------------------------*/
FoamFile
{
    version     2.0;
    format      ascii;
    class       volVectorField;
    location    "0.76";
    object      U;
}
// * * * * * * * * * * * * * * * * * * * * * * * * * * * * * * * * * * * * * //

dimensions      [0 1 -1 0 0 0 0];

internalField   nonuniform List<vector> 
12225
(
(-8.6118e-06 1.16892e-06 0)
(-3.84657e-06 -6.62834e-07 0)
(3.38879e-05 -1.67932e-06 0)
(9.4942e-05 -2.58038e-06 0)
(0.000175253 -3.36357e-06 0)
(0.000271516 -4.12216e-06 0)
(0.000381944 -4.88675e-06 0)
(0.000505329 -5.6893e-06 0)
(0.000640941 -6.56324e-06 0)
(0.000788508 -7.56469e-06 0)
(0.000948398 -8.79291e-06 0)
(0.00112188 -1.04243e-05 0)
(0.00131144 -1.27823e-05 0)
(0.00152042 -1.63923e-05 0)
(0.00175032 -2.11047e-05 0)
(0.00199491 -2.08836e-05 0)
(0.00217393 -3.03108e-05 0)
(0.000316522 0.00128895 0)
(-1.75936e-05 2.95845e-06 0)
(7.06879e-06 -1.02875e-05 0)
(0.000121256 -2.33681e-05 0)
(0.000302132 -3.47743e-05 0)
(0.000538385 -4.50948e-05 0)
(0.000820674 -5.49287e-05 0)
(0.00114338 -6.46519e-05 0)
(0.00150235 -7.45107e-05 0)
(0.00189447 -8.47302e-05 0)
(0.00231737 -9.56165e-05 0)
(0.00276948 -0.000107625 0)
(0.00324966 -0.000121353 0)
(0.00375584 -0.000137237 0)
(0.00427909 -0.000153963 0)
(0.0047861 -0.000160393 0)
(0.0051594 -9.51498e-05 0)
(0.00505804 0.000308541 0)
(0.00144728 0.003211 0)
(-2.03406e-05 3.39176e-06 0)
(3.50559e-05 -3.27881e-05 0)
(0.00022941 -7.04875e-05 0)
(0.000531062 -0.000103787 0)
(0.000922341 -0.000134134 0)
(0.00138829 -0.000162951 0)
(0.00191911 -0.000191194 0)
(0.00250701 -0.000219407 0)
(0.00314535 -0.000247979 0)
(0.00382787 -0.000277304 0)
(0.00454794 -0.000307734 0)
(0.0052968 -0.000339038 0)
(0.00605851 -0.000368368 0)
(0.00679579 -0.000383418 0)
(0.00741445 -0.000337885 0)
(0.00765814 -6.16234e-05 0)
(0.00697859 0.00105487 0)
(0.00269651 0.005526 0)
(-1.83862e-05 -1.8905e-07 0)
(7.77759e-05 -7.21483e-05 0)
(0.00035587 -0.000148341 0)
(0.000778225 -0.000216405 0)
(0.00132175 -0.000278714 0)
(0.00196632 -0.000337713 0)
(0.00269768 -0.000395067 0)
(0.00350366 -0.000451568 0)
(0.00437285 -0.00050752 0)
(0.00529306 -0.00056284 0)
(0.00624952 -0.000616606 0)
(0.00722081 -0.000665221 0)
(0.00816969 -0.000696979 0)
(0.00902121 -0.000676574 0)
(0.00961592 -0.000499159 0)
(0.00959795 0.000144928 0)
(0.00836495 0.00215907 0)
(0.00403231 0.00799467 0)
(-1.30419e-05 -1.08627e-05 0)
(0.000132492 -0.000132149 0)
(0.000497154 -0.000260776 0)
(0.00103872 -0.000376848 0)
(0.00172945 -0.000483465 0)
(0.00254458 -0.000584116 0)
(0.0034651 -0.000681118 0)
(0.00447378 -0.000775245 0)
(0.00555317 -0.000866136 0)
(0.00668327 -0.000952164 0)
(0.00783831 -0.00102914 0)
(0.00898049 -0.00108636 0)
(0.0100473 -0.00109643 0)
(0.0109255 -0.000989552 0)
(0.0114049 -0.000588595 0)
(0.0110942 0.000547952 0)
(0.0094646 0.00348357 0)
(0.00541334 0.0103701 0)
(-5.40289e-06 -3.15275e-05 0)
(0.000196057 -0.000216902 0)
(0.000648684 -0.000412045 0)
(0.00130604 -0.000589606 0)
(0.00213628 -0.000753107 0)
(0.00311045 -0.000906938 0)
(0.00420464 -0.00105379 0)
(0.00539592 -0.0011939 0)
(0.00665972 -0.00132532 0)
(0.00796666 -0.00144331 0)
(0.00927807 -0.00153777 0)
(0.010538 -0.00158663 0)
(0.0116589 -0.00154028 0)
(0.0124969 -0.00128693 0)
(0.0128162 -0.000577092 0)
(0.0122495 0.00112686 0)
(0.0104108 0.0049149 0)
(0.00680398 0.0125503 0)
(3.59228e-06 -6.4842e-05 0)
(0.000264935 -0.000330596 0)
(0.000804793 -0.000606496 0)
(0.00157204 -0.000859064 0)
(0.00253099 -0.00109199 0)
(0.00364891 -0.00131028 0)
(0.00489695 -0.00151649 0)
(0.00624603 -0.00170954 0)
(0.00766375 -0.00188465 0)
(0.00911044 -0.00203201 0)
(0.0105339 -0.00213273 0)
(0.0118606 -0.00214926 0)
(0.0129827 -0.00200524 0)
(0.0137381 -0.00154539 0)
(0.0138936 -0.000460065 0)
(0.0131467 0.00183732 0)
(0.0112722 0.00636607 0)
(0.00817952 0.0145001 0)
(1.31289e-05 -0.000113143 0)
(0.00033526 -0.000477096 0)
(0.000958775 -0.000847992 0)
(0.00182699 -0.00118876 0)
(0.00290029 -0.00150319 0)
(0.00414263 -0.00179648 0)
(0.00552029 -0.00207039 0)
(0.00699797 -0.00232146 0)
(0.00853517 -0.00254059 0)
(0.010082 -0.00271081 0)
(0.0115734 -0.00280166 0)
(0.0129218 -0.00275716 0)
(0.0140061 -0.00247269 0)
(0.0146617 -0.00175411 0)
(0.0146808 -0.00025193 0)
(0.0138464 0.00262336 0)
(0.0120769 0.00776374 0)
(0.00951847 0.0161961 0)
(2.24999e-05 -0.000178268 0)
(0.000402922 -0.000659533 0)
(0.00110302 -0.0011394 0)
(0.0020596 -0.00158081 0)
(0.00322899 -0.00198783 0)
(0.00457219 -0.00236544 0)
(0.00605098 -0.0027137 0)
(0.00762411 -0.00302562 0)
(0.00924345 -0.00328614 0)
(0.0108499 -0.00346917 0)
(0.0123681 -0.00353059 0)
(0.0137012 -0.00339468 0)
(0.0147243 -0.00293051 0)
(0.0152844 -0.00191474 0)
(0.0152146 1.85476e-05 0)
(0.0143853 0.00342446 0)
(0.0128257 0.009044 0)
(0.0107968 0.0176165 0)
(3.10809e-05 -0.000261322 0)
(0.000463678 -0.000879803 0)
(0.0012292 -0.00148198 0)
(0.0022574 -0.00203524 0)
(0.00350034 -0.00254445 0)
(0.00491655 -0.00301395 0)
(0.00646396 -0.00344118 0)
(0.00809613 -0.00381433 0)
(0.00975857 -0.00411092 0)
(0.011385 -0.00429413 0)
(0.0128936 -0.00430515 0)
(0.0141842 -0.00404934 0)
(0.0151374 -0.00337441 0)
(0.0156223 -0.00204047 0)
(0.0155204 0.000312515 0)
(0.0147786 0.00417989 0)
(0.0135006 0.0101511 0)
(0.0119849 0.0187396 0)
(3.83205e-05 -0.00036256 0)
(0.000513271 -0.00113796 0)
(0.00132855 -0.00187471 0)
(0.00240697 -0.00254931 0)
(0.00369645 -0.00316829 0)
(0.00515362 -0.00373506 0)
(0.00673353 -0.00424354 0)
(0.00838593 -0.00467597 0)
(0.0100519 -0.00500123 0)
(0.011661 -0.00517092 0)
(0.0131294 -0.00511178 0)
(0.01436 -0.00471297 0)
(0.0152465 -0.00380807 0)
(0.0156864 -0.00215394 0)
(0.0156092 0.000585401 0)
(0.0150217 0.00483186 0)
(0.0140697 0.0110367 0)
(0.0130456 0.0195426 0)
(4.3415e-05 -0.000471454 0)
(0.00054488 -0.00140706 0)
(0.00138707 -0.00227689 0)
(0.00248755 -0.00306933 0)
(0.00379083 -0.00379359 0)
(0.00525261 -0.00445217 0)
(0.0068265 -0.00503514 0)
(0.00846047 -0.00551846 0)
(0.0100939 -0.00586243 0)
(0.0116558 -0.00600806 0)
(0.0130649 -0.00587025 0)
(0.0142319 -0.00532719 0)
(0.0150674 -0.00420685 0)
(0.0154971 -0.0022741 0)
(0.0154883 0.000773523 0)
(0.0150871 0.0052874 0)
(0.014455 0.0116099 0)
(0.0138594 0.0199678 0)
(4.73158e-05 -0.000591368 0)
(0.000562071 -0.00169782 0)
(0.00141155 -0.00270562 0)
(0.00251021 -0.00361831 0)
(0.00379965 -0.00444873 0)
(0.00523548 -0.00519859 0)
(0.00677126 -0.00585376 0)
(0.00835494 -0.00638358 0)
(0.00992652 -0.00673978 0)
(0.0114175 -0.00685354 0)
(0.0127523 -0.00662998 0)
(0.0138533 -0.00594033 0)
(0.0146498 -0.00461322 0)
(0.0150945 -0.00242902 0)
(0.0151858 0.000875759 0)
(0.0149948 0.00558433 0)
(0.0146843 0.0119475 0)
(0.0144901 0.0201049 0)
(4.98681e-05 -0.000739594 0)
(0.000560069 -0.00205387 0)
(0.00138856 -0.00322347 0)
(0.00244987 -0.00427457 0)
(0.0036838 -0.00522555 0)
(0.00504724 -0.00607738 0)
(0.00649581 -0.00681105 0)
(0.00797996 -0.00738827 0)
(0.00944365 -0.00775149 0)
(0.0108248 -0.00782227 0)
(0.0120585 -0.00749794 0)
(0.013083 -0.00664723 0)
(0.01385 -0.00510679 0)
(0.0143389 -0.00268188 0)
(0.014574 0.000843475 0)
(0.0146406 0.00568181 0)
(0.0146908 0.0120005 0)
(0.0149234 0.0198701 0)
(4.94595e-05 -0.000914522 0)
(0.000525912 -0.00247146 0)
(0.00128825 -0.00382326 0)
(0.00225639 -0.00502669 0)
(0.00337173 -0.00610842 0)
(0.00459494 -0.00706908 0)
(0.00588678 -0.00788455 0)
(0.0072041 -0.00850866 0)
(0.00849924 -0.00887491 0)
(0.0097216 -0.00889692 0)
(0.0108216 -0.00846793 0)
(0.0117573 -0.00746031 0)
(0.0125035 -0.00572671 0)
(0.0130631 -0.00310539 0)
(0.0134779 0.000567475 0)
(0.0138361 0.00543671 0)
(0.0142696 0.0115991 0)
(0.0149381 0.0190733 0)
(4.39976e-05 -0.00110545 0)
(0.000443325 -0.00292474 0)
(0.00107337 -0.00446746 0)
(0.00186729 -0.00582647 0)
(0.00277463 -0.00703992 0)
(0.00376385 -0.0081092 0)
(0.00480519 -0.00900578 0)
(0.00586676 -0.00967663 0)
(0.00691452 -0.0100482 0)
(0.0079144 -0.0100297 0)
(0.00883622 -0.00951529 0)
(0.00965951 -0.00838751 0)
(0.0103805 -0.00652176 0)
(0.0110194 -0.00379381 0)
(0.0116259 -9.11741e-05 0)
(0.0122804 0.00467156 0)
(0.0130897 0.0105359 0)
(0.0141755 0.0174841 0)
(3.12149e-05 -0.00128439 0)
(0.000294988 -0.00334728 0)
(0.000704742 -0.00506269 0)
(0.00121699 -0.00655924 0)
(0.0017992 -0.0078886 0)
(0.00243324 -0.00905465 0)
(0.00310377 -0.0100266 0)
(0.00379529 -0.0107473 0)
(0.00449242 -0.0111401 0)
(0.00518171 -0.0111141 0)
(0.00585472 -0.0105702 0)
(0.00651197 -0.00940617 0)
(0.00716716 -0.00752335 0)
(0.00785074 -0.00483425 0)
(0.00861164 -0.0012712 0)
(0.00951565 0.00320439 0)
(0.0106425 0.00859425 0)
(0.01208 0.014858 0)
(9.13513e-06 -0.001395 0)
(6.89484e-05 -0.00360674 0)
(0.000156997 -0.00542506 0)
(0.000263779 -0.00700303 0)
(0.0003855 -0.0084038 0)
(0.000523336 -0.00963539 0)
(0.000680535 -0.0106682 0)
(0.000861793 -0.0114457 0)
(0.00107361 -0.0118932 0)
(0.00132527 -0.0119254 0)
(0.00163035 -0.0114535 0)
(0.00200843 -0.0103927 0)
(0.00248666 -0.00866865 0)
(0.00310059 -0.0062239 0)
(0.00389373 -0.00302397 0)
(0.00491553 0.0009381 0)
(0.00621939 0.00563863 0)
(0.00786422 0.0110258 0)
(-2.34831e-05 -0.00134296 0)
(-0.000224888 -0.00348279 0)
(-0.000542584 -0.00524774 0)
(-0.00094499 -0.00678627 0)
(-0.0014009 -0.00816295 0)
(-0.00188737 -0.00938985 0)
(-0.00238183 -0.010443 0)
(-0.00285915 -0.0112729 0)
(-0.00329119 -0.0118137 0)
(-0.00364677 -0.0119908 0)
(-0.00389186 -0.0117292 0)
(-0.00398992 -0.0109599 0)
(-0.00390247 -0.00962697 0)
(-0.00359004 -0.00769204 0)
(-0.00301372 -0.0051383 0)
(-0.00213666 -0.00197233 0)
(-0.000924273 0.00177598 0)
(0.000657753 0.00605345 0)
(-4.59702e-05 -0.00110379 0)
(-0.000444777 -0.00291109 0)
(-0.0010746 -0.00443476 0)
(-0.00187555 -0.00578297 0)
(-0.00279427 -0.00700659 0)
(-0.00379567 -0.00811821 0)
(-0.00484632 -0.00910143 0)
(-0.00590919 -0.0099181 0)
(-0.00694299 -0.0105153 0)
(-0.00790268 -0.0108321 0)
(-0.00874053 -0.0108068 0)
(-0.00940779 -0.0103824 0)
(-0.00985639 -0.00951285 0)
(-0.010041 -0.00816716 0)
(-0.00992135 -0.00633206 0)
(-0.00946314 -0.00401348 0)
(-0.00863721 -0.00123625 0)
(-0.00741746 0.00195726 0)
(-5.46137e-05 -0.000835727 0)
(-0.000544167 -0.00227433 0)
(-0.00132568 -0.00352543 0)
(-0.00232874 -0.00464901 0)
(-0.00349308 -0.00567983 0)
(-0.00478042 -0.0066298 0)
(-0.00615419 -0.00748932 0)
(-0.00757374 -0.00823098 0)
(-0.00899353 -0.00881444 0)
(-0.0103635 -0.0091918 0)
(-0.0116303 -0.00931309 0)
(-0.0127397 -0.00913153 0)
(-0.0136381 -0.00860821 0)
(-0.0142761 -0.0077158 0)
(-0.0146099 -0.00644096 0)
(-0.0146038 -0.00478548 0)
(-0.0142292 -0.00276619 0)
(-0.0134627 -0.000414362 0)
(-5.30259e-05 -0.000577871 0)
(-0.000555772 -0.00165666 0)
(-0.00137523 -0.00263271 0)
(-0.00244194 -0.00352091 0)
(-0.00369752 -0.0043418 0)
(-0.00510492 -0.00510644 0)
(-0.00662839 -0.005811 0)
(-0.00822846 -0.00643764 0)
(-0.00986066 -0.00695757 0)
(-0.0114756 -0.007335 0)
(-0.01302 -0.00753133 0)
(-0.0144387 -0.00750931 0)
(-0.0156768 -0.00723684 0)
(-0.0166827 -0.00668997 0)
(-0.0174103 -0.00585507 0)
(-0.0178213 -0.00472985 0)
(-0.0178852 -0.00332358 0)
(-0.017578 -0.00165707 0)
(-4.40441e-05 -0.00036356 0)
(-0.000503604 -0.00113198 0)
(-0.00127834 -0.00185934 0)
(-0.00230632 -0.00252725 0)
(-0.00353528 -0.00314644 0)
(-0.00493098 -0.00372721 0)
(-0.00646055 -0.00426991 0)
(-0.00808835 -0.00476418 0)
(-0.00977433 -0.00519075 0)
(-0.0114736 -0.00552427 0)
(-0.0131368 -0.00573636 0)
(-0.014712 -0.00579875 0)
(-0.0161465 -0.00568613 0)
(-0.0173895 -0.00537853 0)
(-0.0183947 -0.00486312 0)
(-0.0191222 -0.00413508 0)
(-0.0195397 -0.00319801 0)
(-0.0196218 -0.00206437 0)
(-3.06427e-05 -0.000204118 0)
(-0.000413197 -0.000725486 0)
(-0.00109231 -0.00124279 0)
(-0.00201574 -0.00171934 0)
(-0.00313824 -0.0021606 0)
(-0.00442865 -0.00257602 0)
(-0.00585782 -0.00296842 0)
(-0.0073953 -0.0033326 0)
(-0.00900718 -0.00365653 0)
(-0.0106551 -0.00392319 0)
(-0.0122964 -0.00411284 0)
(-0.0138849 -0.00420517 0)
(-0.0153729 -0.00418137 0)
(-0.0167134 -0.00402588 0)
(-0.0178621 -0.00372772 0)
(-0.0187799 -0.00328134 0)
(-0.0194338 -0.00268686 0)
(-0.0197981 -0.00195078 0)
(-1.55466e-05 -9.74453e-05 0)
(-0.000306911 -0.000433302 0)
(-0.000865874 -0.000781712 0)
(-0.00164901 -0.00110152 0)
(-0.00261733 -0.00139622 0)
(-0.00374269 -0.00167402 0)
(-0.00500014 -0.00193866 0)
(-0.00636489 -0.00218812 0)
(-0.00780981 -0.00241537 0)
(-0.00930401 -0.0026097 0)
(-0.0108124 -0.00275818 0)
(-0.0122965 -0.00284715 0)
(-0.0137153 -0.00286356 0)
(-0.0150277 -0.00279619 0)
(-0.0161937 -0.00263657 0)
(-0.0171771 -0.00237964 0)
(-0.0179464 -0.00202393 0)
(-0.0184767 -0.00157213 0)
(-1.11855e-06 -3.45487e-05 0)
(-0.000202306 -0.00023742 0)
(-0.00063563 -0.000455746 0)
(-0.00126425 -0.00065407 0)
(-0.00205449 -0.00083542 0)
(-0.00298152 -0.00100633 0)
(-0.00402488 -0.0011703 0)
(-0.00516545 -0.00132692 0)
(-0.00638277 -0.00147244 0)
(-0.00765335 -0.00160058 0)
(-0.00895008 -0.00170355 0)
(-0.0102424 -0.00177286 0)
(-0.0114974 -0.0018002 0)
(-0.0126808 -0.0017782 0)
(-0.013759 -0.001701 0)
(-0.0147003 -0.00156469 0)
(-0.0154763 -0.00136752 0)
(-0.016065 -0.00111004 0)
(1.0564e-05 -3.8997e-06 0)
(-0.00011202 -0.00011547 0)
(-0.000426125 -0.000238365 0)
(-0.000899651 -0.000348147 0)
(-0.00150404 -0.000447561 0)
(-0.00221846 -0.000541158 0)
(-0.00302718 -0.000631519 0)
(-0.00391642 -0.000718854 0)
(-0.00487182 -0.000801368 0)
(-0.00587677 -0.000875789 0)
(-0.00691165 -0.000937885 0)
(-0.00795392 -0.000982965 0)
(-0.00897862 -0.00100633 0)
(-0.00995942 -0.00100369 0)
(-0.0108697 -0.00097151 0)
(-0.0116839 -0.000907246 0)
(-0.0123785 -0.000809485 0)
(-0.012935 -0.000677905 0)
(1.75561e-05 6.03163e-06 0)
(-4.4286e-05 -4.63297e-05 0)
(-0.000251665 -0.000104141 0)
(-0.000577076 -0.000154638 0)
(-0.000997891 -0.000199847 0)
(-0.00149824 -0.000242352 0)
(-0.00206715 -0.00028364 0)
(-0.00269568 -0.000323989 0)
(-0.00337476 -0.000362691 0)
(-0.00409373 -0.000398315 0)
(-0.00483977 -0.000428954 0)
(-0.00559775 -0.000452448 0)
(-0.00635056 -0.000466595 0)
(-0.00707976 -0.000469337 0)
(-0.00776638 -0.000458919 0)
(-0.00839176 -0.000434012 0)
(-0.00893831 -0.000393768 0)
(-0.00939221 -0.000337667 0)
(1.78701e-05 5.52782e-06 0)
(-3.70447e-06 -1.26219e-05 0)
(-0.000118698 -3.18287e-05 0)
(-0.000306425 -4.80956e-05 0)
(-0.000551778 -6.24431e-05 0)
(-0.000844734 -7.59077e-05 0)
(-0.00117895 -8.90802e-05 0)
(-0.00154965 -0.000102112 0)
(-0.00195208 -0.000114812 0)
(-0.00238061 -0.000126744 0)
(-0.00282824 -0.000137305 0)
(-0.00328649 -0.000145797 0)
(-0.00374558 -0.000151497 0)
(-0.00419474 -0.000153714 0)
(-0.00462268 -0.00015184 0)
(-0.00501811 -0.000145393 0)
(-0.00537007 -0.00013401 0)
(-0.00566988 -0.000117292 0)
(9.59756e-06 1.96196e-06 0)
(8.05487e-06 -6.09449e-07 0)
(-2.804e-05 -2.20059e-06 0)
(-8.95013e-05 -3.45638e-06 0)
(-0.000170577 -4.51642e-06 0)
(-0.000267695 -5.50795e-06 0)
(-0.000378809 -6.49566e-06 0)
(-0.000502521 -7.50126e-06 0)
(-0.000637483 -8.51587e-06 0)
(-0.000782049 -9.50935e-06 0)
(-0.000934091 -1.04365e-05 0)
(-0.00109095 -1.12435e-05 0)
(-0.00124947 -1.18716e-05 0)
(-0.00140609 -1.22632e-05 0)
(-0.00155704 -1.2365e-05 0)
(-0.00169842 -1.21371e-05 0)
(-0.00182633 -1.15112e-05 0)
(-0.00193764 -1.03914e-05 0)
(1.50156e-05 -3.46813e-05 7.06437e-24)
(0.000110884 -8.34399e-05 -9.42636e-24)
(0.000268341 -0.00011303 0)
(0.000462507 -0.000125988 0)
(0.000662055 -0.000126971 0)
(0.000844229 -0.000119595 7.59559e-24)
(0.00099294 -0.000106741 0)
(0.00109667 -9.06993e-05 0)
(0.00114742 -7.31696e-05 0)
(0.00113995 -5.53231e-05 0)
(0.00107106 -3.78643e-05 1.56096e-24)
(0.000939023 -2.11635e-05 0)
(0.00074291 -5.32895e-06 0)
(0.000482206 9.72886e-06 0)
(0.000156458 2.42326e-05 0)
(-0.000234988 3.84904e-05 1.6207e-23)
(-0.000693134 5.28597e-05 0)
(-0.00121937 6.77044e-05 0)
(-0.00181547 8.33632e-05 0)
(-0.00248346 0.000100125 0)
(-0.00322551 0.00011821 0)
(-0.00404366 0.000137758 0)
(-0.00493961 0.000158817 0)
(-0.00591445 0.000181345 4.69999e-23)
(-0.00696838 0.000205204 -5.106e-23)
(-0.00810047 0.000230163 5.50263e-23)
(-0.00930834 0.000255899 5.88339e-23)
(-0.010588 0.000281999 0)
(-0.0119337 0.000307967 0)
(-0.0133377 0.000333223 -6.85323e-23)
(-0.0147901 0.000357119 -7.08968e-23)
(-0.0162789 0.000378946 0)
(-0.0177902 0.000397951 0)
(-0.0193077 0.000413356 -7.402e-23)
(-0.0208136 0.000424386 0)
(-0.0222883 0.000430296 0)
(-0.0237109 0.000430405 6.9136e-23)
(-0.0250596 0.000424124 0)
(-0.026312 0.000410998 6.03263e-23)
(-0.0274457 0.00039073 1.08186e-22)
(-0.0284389 0.000363212 0)
(-0.0292709 0.000328544 0)
(-0.0299224 0.000287032 0)
(-0.0303764 0.000239184 0)
(-0.0306184 0.000185758 0)
(-0.0306364 0.000127844 -1.67887e-23)
(-0.030422 6.62157e-05 -4.46613e-23)
(-0.0299707 2.0827e-06 -7.38586e-23)
(-0.0292814 -6.31604e-05 0)
(-0.0283567 -0.000128175 1.34776e-22)
(-0.0272028 -0.000191683 0)
(-0.025829 -0.000252487 -1.96353e-22)
(-0.0242477 -0.000309513 -2.26313e-22)
(-0.022474 -0.00036185 0)
(-0.0205248 -0.000408771 0)
(-0.0184188 -0.00044975 0)
(-0.0161757 -0.000484464 -3.30595e-22)
(-0.0138158 -0.000512775 0)
(-0.0113595 -0.000534707 0)
(-0.00882721 -0.00055041 0)
(-0.0062387 -0.000560116 0)
(-0.00361344 -0.000564051 0)
(-0.000970548 -0.000562258 0)
(0.0016713 -0.000554544 0)
(0.00429438 -0.000541122 0)
(0.00687981 -0.000522543 3.76566e-22)
(0.00940839 -0.000499053 0)
(0.0118605 -0.000470657 0)
(0.0142155 -0.000437278 -3.1806e-22)
(0.0164516 -0.000398824 -2.923e-22)
(0.0185458 -0.000355252 0)
(0.0204739 -0.000306626 2.33344e-22)
(0.022211 -0.000253175 -2.00963e-22)
(0.0237319 -0.000195351 0)
(0.0250119 -0.000133867 1.32769e-22)
(0.026028 -6.97175e-05 0)
(0.0267599 -4.18639e-06 0)
(0.0271912 6.10864e-05 -3.0075e-23)
(0.0273104 0.000124182 0)
(0.0271132 0.000183853 -3.19913e-23)
(0.026603 0.000237838 0)
(0.0257911 0.000284407 8.40145e-23)
(0.0246973 0.000322122 1.05275e-22)
(0.0233501 0.000349877 1.23031e-22)
(0.021786 0.000367024 2.74354e-22)
(0.0200481 0.000373455 -2.95452e-22)
(0.0181844 0.000369616 0)
(0.0162456 0.000356475 0)
(0.0142827 0.000335432 0)
(0.0123444 0.0003082 -3.16332e-22)
(0.0104747 0.000276646 -3.09264e-22)
(0.00871115 0.000242637 2.99037e-22)
(0.0070833 0.000207889 0)
(0.00561218 0.000173859 -2.72599e-22)
(0.00431029 0.00014167 -2.57934e-22)
(0.0031822 0.00011211 -2.43155e-22)
(0.00222556 8.56649e-05 0)
(0.00143222 6.26032e-05 0)
(0.000789307 4.30627e-05 0)
(0.000280256 2.71167e-05 -1.91169e-22)
(-0.000114324 1.47968e-05 0)
(-0.000415657 6.06642e-06 0)
(-0.00064562 7.53313e-07 1.65196e-22)
(-0.00082541 -1.49675e-06 0)
(-0.000974165 -1.21753e-06 0)
(-0.00110779 9.19339e-07 1.51137e-22)
(-0.00123815 4.18669e-06 0)
(-0.00137286 7.89519e-06 0)
(-0.0015155 1.14697e-05 -1.4482e-22)
(-0.0016663 1.44915e-05 -1.43511e-22)
(-0.001823 1.67051e-05 0)
(-0.00198179 1.79985e-05 1.41113e-22)
(-0.00213804 1.837e-05 0)
(-0.00228703 1.78931e-05 -1.38307e-22)
(-0.00242433 1.66862e-05 0)
(-0.00254615 1.48899e-05 -1.34642e-22)
(-0.00264951 1.2652e-05 -1.32446e-22)
(-0.0027323 1.0118e-05 0)
(-0.0027933 7.42393e-06 0)
(-0.00283215 4.68935e-06 0)
(-0.00284931 2.02745e-06 0)
(-0.00284583 -4.23622e-07 0)
(-0.00282335 -2.6612e-06 0)
(-0.00278401 -4.61523e-06 0)
(-0.0027302 -6.24482e-06 -1.09571e-22)
(-0.00266447 -7.53607e-06 1.06645e-22)
(-0.00258944 -8.49144e-06 0)
(-0.00250767 -9.12676e-06 0)
(-0.0024216 -9.46834e-06 0)
(-0.00233342 -9.54996e-06 0)
(-0.00224511 -9.40984e-06 1.87877e-22)
(-0.00215834 -9.08798e-06 0)
(-0.00207451 -8.62394e-06 -1.79839e-22)
(-0.0019947 -8.05508e-06 1.76258e-22)
(-0.00191975 -7.41534e-06 0)
(-0.00185022 -6.73442e-06 0)
(-0.00178647 -6.03747e-06 0)
(-0.00172865 -5.345e-06 -1.64326e-22)
(-0.00167677 -4.6731e-06 -1.61809e-22)
(-0.00163069 -4.03384e-06 0)
(-0.0015902 -3.43571e-06 -1.57147e-22)
(-0.00155498 -2.88416e-06 -1.54954e-22)
(-0.00152469 -2.38214e-06 1.52826e-22)
(-0.00149894 -1.93059e-06 0)
(-0.00147734 -1.5289e-06 0)
(-0.00145949 -1.17534e-06 1.46654e-22)
(-0.00144498 -8.67354e-07 0)
(-0.00143343 -6.01854e-07 0)
(-0.00142448 -3.75418e-07 0)
(-0.00141779 -1.84457e-07 0)
(-0.00141304 -2.53045e-08 -1.36356e-22)
(-0.00140994 1.05676e-07 -1.34228e-22)
(-0.00140822 2.11454e-07 0)
(-0.00140764 2.92823e-07 -1.29875e-22)
(-0.00140799 3.50971e-07 0)
(-0.00140907 3.8657e-07 0)
(-0.00141074 3.98955e-07 -1.23095e-22)
(-0.00141285 3.96946e-07 0)
(-0.00141529 4.02428e-07 -1.18414e-22)
(-0.00141796 4.07247e-07 0)
(-0.00142082 4.118e-07 0)
(-0.00142381 4.21335e-07 -1.11178e-22)
(-0.00142695 4.33176e-07 0)
(-0.00143023 4.49594e-07 -1.06227e-22)
(-0.00143371 4.72039e-07 0)
(-0.00143743 5.00779e-07 0)
(-0.00144141 5.34278e-07 0)
(-0.00144566 5.68706e-07 9.60075e-23)
(-0.00145011 5.97199e-07 0)
(-0.00145459 6.08473e-07 -9.06802e-23)
(-0.00145878 5.85089e-07 0)
(-0.00146215 5.17549e-07 0)
(-0.00146392 4.38785e-07 0)
(-0.00146299 2.28838e-07 0)
(-0.00145793 -1.19252e-07 0)
(-0.00144679 -6.34541e-07 0)
(-0.00142656 -1.46299e-06 0)
(-0.00139239 -3.43524e-06 1.33681e-22)
(-0.00134688 -3.51268e-06 0)
(-0.00119269 -2.41093e-05 0)
(2.56157e-05 -0.000218254 -2.39234e-23)
(0.000194163 -0.000512415 3.22437e-23)
(0.000438004 -0.000676532 0)
(0.000711644 -0.000728245 -2.14753e-23)
(0.00096278 -0.000689295 0)
(0.00115159 -0.000580973 -8.14773e-24)
(0.00124781 -0.000421982 1.5658e-23)
(0.00122803 -0.000227853 1.26074e-23)
(0.0010743 -1.09012e-05 0)
(0.000773313 0.000219636 5.02993e-24)
(0.000315274 0.000457165 -1.68301e-24)
(-0.000306954 0.000697337 0)
(-0.00109866 0.000937671 0)
(-0.00206398 0.00117713 0)
(-0.00320641 0.00141572 0)
(-0.00452922 0.00165414 -1.73683e-23)
(-0.00603557 0.00189342 0)
(-0.00772862 0.0021346 4.1121e-23)
(-0.00961136 0.00237847 0)
(-0.0116863 0.00262532 0)
(-0.0139553 0.00287479 -6.36103e-23)
(-0.0164184 0.00312572 0)
(-0.0190744 0.00337612 7.95761e-23)
(-0.0219189 0.00362316 -4.95435e-23)
(-0.024945 0.00386318 5.36687e-23)
(-0.0281419 0.00409179 -5.76643e-23)
(-0.0314949 0.00430395 -6.14638e-23)
(-0.0349848 0.00449416 0)
(-0.0385879 0.00465654 0)
(-0.0422759 0.00478505 7.09188e-23)
(-0.0460158 0.00487371 -6.30733e-23)
(-0.0497702 0.00491672 0)
(-0.0534979 0.00490876 0)
(-0.0571543 0.00484518 7.57182e-23)
(-0.0606924 0.00472218 0)
(-0.0640632 0.00453707 0)
(-0.067217 0.00428839 -7.02856e-23)
(-0.0701045 0.00397607 0)
(-0.0726776 0.00360152 6.01437e-23)
(-0.0748909 0.00316764 -1.09675e-22)
(-0.0767021 0.00267888 0)
(-0.0780737 0.00214104 0)
(-0.0789733 0.0015612 -1.22431e-22)
(-0.0793748 0.000947438 -8.0085e-23)
(-0.0792578 0.000308848 -3.31074e-23)
(-0.07861 -0.000344728 -9.76564e-25)
(-0.0774262 -0.0010033 4.56003e-23)
(-0.075708 -0.00165659 2.06594e-22)
(-0.0734643 -0.00229469 -1.9157e-22)
(-0.0707104 -0.00290836 -1.38709e-22)
(-0.0674678 -0.00348925 0)
(-0.0637633 -0.0040301 2.03619e-22)
(-0.0596282 -0.00452491 -2.0835e-22)
(-0.0550975 -0.00496902 0)
(-0.0502091 -0.0053592 0)
(-0.0450028 -0.0056936 0)
(-0.0395194 -0.00597163 3.51836e-22)
(-0.0338002 -0.00619384 0)
(-0.0278858 -0.00636167 -7.61055e-22)
(-0.0218161 -0.00647719 0)
(-0.01563 -0.00654279 -8.23808e-22)
(-0.00936496 -0.00656081 0)
(-0.0030578 -0.00653309 8.55692e-22)
(0.00325455 -0.0064608 0)
(0.00953799 -0.0063449 -8.26377e-22)
(0.015755 -0.00618617 3.81738e-22)
(0.0218678 -0.00598467 0)
(0.027837 -0.00573949 7.11103e-22)
(0.0336207 -0.00544907 3.44098e-22)
(0.0391736 -0.00511158 3.14871e-22)
(0.0444471 -0.00472526 0)
(0.0493888 -0.00428887 2.24396e-22)
(0.0539433 -0.00380215 2.14206e-22)
(0.0580524 -0.00326625 0)
(0.0616569 -0.0026842 -1.40856e-22)
(0.0646978 -0.00206123 1.89312e-22)
(0.0671186 -0.00140505 0)
(0.0688678 -0.000726011 3.18204e-23)
(0.0699023 -3.71701e-05 0)
(0.0701896 0.000646659 1.10401e-22)
(0.0697115 0.00130854 0)
(0.068468 0.00193082 -2.70017e-22)
(0.0664782 0.00249599 -1.11745e-22)
(0.0637822 0.0029875 1.27632e-22)
(0.0604421 0.00339094 2.80209e-22)
(0.056541 0.00369523 -2.98193e-22)
(0.0521805 0.00389365 0)
(0.0474775 0.00398442 0)
(0.0425581 0.00397104 0)
(0.0375519 0.00386205 1.00365e-21)
(0.0325847 0.00367028 3.40176e-22)
(0.0277723 0.00341174 -3.30878e-22)
(0.0232148 0.00310424 0)
(0.0189921 0.00276585 -2.71593e-22)
(0.015162 0.00241365 2.90207e-22)
(0.0117596 0.00206274 2.74923e-22)
(0.00879857 0.00172577 0)
(0.0062731 0.00141282 0)
(0.00416105 0.00113165 0)
(0.00242673 0.000887903 2.19423e-22)
(0.00102421 0.000685195 0)
(-9.93869e-05 0.000525009 -3.86873e-22)
(-0.00100015 0.00040643 -5.62903e-22)
(-0.00173348 0.000326072 3.60172e-22)
(-0.00235017 0.000278373 0)
(-0.00289337 0.000256203 1.68849e-22)
(-0.00339641 0.000251743 0)
(-0.00388204 0.000257413 3.33623e-22)
(-0.00436291 0.000266658 -1.63108e-22)
(-0.00484305 0.000274413 -1.61941e-22)
(-0.00531988 0.000277252 0)
(-0.00578642 0.000273279 -4.86108e-22)
(-0.00623328 0.000261853 3.20359e-22)
(-0.00665032 0.000243265 1.59996e-22)
(-0.00702786 0.00021843 0)
(-0.0073576 0.000188629 1.55893e-22)
(-0.00763306 0.000155314 4.58834e-22)
(-0.0078499 0.000119971 0)
(-0.00800592 8.40205e-05 2.9484e-22)
(-0.00810106 4.87452e-05 2.88919e-22)
(-0.00813717 1.52591e-05 2.82677e-22)
(-0.00811772 -1.54403e-05 0)
(-0.00804757 -4.27766e-05 0)
(-0.00793259 -6.62553e-05 0)
(-0.00777933 -8.56096e-05 -1.28608e-22)
(-0.00759471 -0.000100776 -1.24361e-22)
(-0.00738574 -0.000111858 0)
(-0.0071592 -0.000119101 -2.37507e-22)
(-0.0069215 -0.000122849 -2.31783e-22)
(-0.00667847 -0.00012352 0)
(-0.00643529 -0.000121574 -2.20086e-22)
(-0.00619638 -0.00011748 -4.33162e-22)
(-0.00596541 -0.000111699 2.11056e-22)
(-0.00574527 -0.000104666 2.09147e-22)
(-0.00553816 -9.67729e-05 0)
(-0.00534564 -8.83663e-05 0)
(-0.00516865 -7.97404e-05 0)
(-0.00500766 -7.11374e-05 1.93693e-22)
(-0.00486271 -6.275e-05 -1.92175e-22)
(-0.00473349 -5.4725e-05 -3.77578e-22)
(-0.00461942 -4.71684e-05 1.85679e-22)
(-0.00451975 -4.01514e-05 -1.84082e-22)
(-0.00443356 -3.37157e-05 -1.80853e-22)
(-0.00435985 -2.78792e-05 0)
(-0.00429756 -2.26412e-05 0)
(-0.00424564 -1.79867e-05 1.74346e-22)
(-0.00420301 -1.38904e-05 0)
(-0.00416865 -1.03198e-05 0)
(-0.00414158 -7.23772e-06 -3.34241e-22)
(-0.00412088 -4.60453e-06 0)
(-0.00410568 -2.37946e-06 -1.62381e-22)
(-0.00409519 -5.21914e-07 1.59864e-22)
(-0.00408867 1.00719e-06 0)
(-0.00408546 2.24335e-06 -1.54883e-22)
(-0.00408498 3.22095e-06 0)
(-0.0040867 3.97263e-06 0)
(-0.00409016 4.52905e-06 1.47097e-22)
(-0.00409497 4.92861e-06 -2.88756e-22)
(-0.00410081 5.22344e-06 1.41691e-22)
(-0.00410743 5.43184e-06 0)
(-0.00411465 5.59541e-06 0)
(-0.00412235 5.7388e-06 -1.33201e-22)
(-0.00413048 5.88178e-06 0)
(-0.00413905 6.04724e-06 -1.27428e-22)
(-0.00414812 6.2477e-06 0)
(-0.00415775 6.48034e-06 0)
(-0.00416795 6.72062e-06 0)
(-0.00417866 6.91548e-06 -1.15563e-22)
(-0.00418959 6.97676e-06 0)
(-0.00420016 6.77556e-06 1.09295e-22)
(-0.00420938 6.13874e-06 0)
(-0.00421569 4.87224e-06 0)
(-0.0042169 2.77406e-06 -1.98692e-22)
(-0.00420997 -5.63999e-07 1.91755e-22)
(-0.0041909 -5.49508e-06 0)
(-0.00415447 -1.25642e-05 0)
(-0.00409317 -2.28695e-05 0)
(-0.00399639 -3.88204e-05 -4.87383e-22)
(-0.00386491 -6.44131e-05 0)
(-0.00355409 -0.000126809 2.93822e-22)
(2.26328e-05 -0.000429417 -4.25273e-24)
(0.000156006 -0.000950485 -4.94686e-23)
(0.000316735 -0.00118738 0)
(0.000453256 -0.0011914 4.73704e-23)
(0.000510641 -0.00100936 0)
(0.000446555 -0.000682874 0)
(0.000227766 -0.000247607 4.18816e-24)
(-0.000172576 0.000266729 -1.26236e-23)
(-0.000776169 0.000836265 -1.3606e-23)
(-0.00160048 0.00144242 -5.01664e-24)
(-0.00265951 0.00207142 0)
(-0.00396451 0.00271361 0)
(-0.00552467 0.00336274 -3.39911e-24)
(-0.00734757 0.00401524 -1.69718e-23)
(-0.00943957 0.00466946 2.77909e-23)
(-0.0118059 0.00532493 0)
(-0.0144509 0.00598165 5.13611e-23)
(-0.0173775 0.00663946 -4.02852e-23)
(-0.0205871 0.00729738 0)
(-0.0240791 0.0079532 9.14462e-23)
(-0.0278502 0.0086031 6.18185e-23)
(-0.0318936 0.00924141 -1.20981e-22)
(-0.0361986 0.00986056 -7.68877e-23)
(-0.0407495 0.0104511 0)
(-0.0455255 0.011002 1.67885e-22)
(-0.0504998 0.0115007 1.83638e-22)
(-0.0556395 0.0119338 0)
(-0.0609056 0.0122873 2.14064e-22)
(-0.066253 0.0125469 0)
(-0.0716309 0.0126991 2.41202e-22)
(-0.0769835 0.0127311 1.28828e-22)
(-0.0822509 0.0126319 0)
(-0.08737 0.0123921 0)
(-0.0922758 0.0120051 0)
(-0.0969026 0.0114669 0)
(-0.101186 0.0107767 0)
(-0.105062 0.00993713 0)
(-0.108472 0.00895384 2.5988e-22)
(-0.111361 0.00783599 -3.5998e-22)
(-0.113681 0.00659581 0)
(-0.115388 0.00524834 0)
(-0.116449 0.003811 0)
(-0.116836 0.00230315 -2.62732e-23)
(-0.11653 0.000745628 7.57718e-23)
(-0.115523 -0.000839515 9.16254e-23)
(-0.113813 -0.00242968 4.3379e-24)
(-0.111408 -0.00400264 3.85037e-23)
(-0.108323 -0.00553735 -1.24275e-22)
(-0.104578 -0.00701427 3.16092e-23)
(-0.100204 -0.00841568 -2.09623e-22)
(-0.0952342 -0.00972619 0)
(-0.0897075 -0.0109329 -3.31382e-22)
(-0.0836673 -0.0120258 3.23516e-23)
(-0.0771594 -0.0129977 0)
(-0.0702318 -0.0138442 0)
(-0.0629335 -0.0145636 5.64975e-22)
(-0.0553136 -0.0151568 0)
(-0.0474205 -0.0156266 0)
(-0.0393016 -0.0159774 -6.71864e-22)
(-0.0310025 -0.0162147 -1.48262e-21)
(-0.022567 -0.0163442 8.0482e-22)
(-0.0140369 -0.0163718 0)
(-0.00545298 -0.0163021 -8.42062e-22)
(0.00314385 -0.0161386 0)
(0.0117171 -0.0158831 -7.45545e-22)
(0.0202257 -0.0155358 -7.80109e-22)
(0.0286271 -0.0150956 1.4149e-21)
(0.0368771 -0.0145592 6.29982e-22)
(0.0449276 -0.0139222 0)
(0.0527262 -0.013179 -1.10718e-21)
(0.0602148 -0.012324 0)
(0.0673301 -0.0113522 -1.31444e-21)
(0.0740029 -0.01026 -7.23718e-22)
(0.0801588 -0.00904684 -5.87007e-22)
(0.0857192 -0.00771528 4.49063e-22)
(0.0906025 -0.0062726 -4.93293e-22)
(0.0947265 -0.00473132 0)
(0.0980109 -0.0031098 0)
(0.10038 -0.00143256 -7.36364e-23)
(0.10177 0.000269311 -2.59876e-22)
(0.102124 0.00195909 0)
(0.10141 0.00359578 1.72324e-22)
(0.0996168 0.00513607 0)
(0.0967597 0.00653603 -7.57377e-22)
(0.0928853 0.00775362 1.43897e-23)
(0.0880722 0.00875176 -7.79642e-24)
(0.082432 0.00950136 6.12104e-22)
(0.0761061 0.0099841 0)
(0.0692614 0.0101944 -6.20768e-22)