/*--------------------------------*- C++ -*----------------------------------*\
  =========                 |
  \\      /  F ield         | OpenFOAM: The Open Source CFD Toolbox
   \\    /   O peration     | Website:  https://openfoam.org
    \\  /    A nd           | Version:  8
     \\/     M anipulation  |
\*---------------------------------------------------------------------------*/
FoamFile
{
    version     2.0;
    format      ascii;
    class       volScalarField;
    location    "0.54";
    object      p;
}
// * * * * * * * * * * * * * * * * * * * * * * * * * * * * * * * * * * * * * //

dimensions      [0 2 -2 0 0 0 0];

internalField   nonuniform List<scalar> 
12225
(
-0.0105865
-0.0105532
-0.010514
-0.0104774
-0.0104511
-0.0104395
-0.0104462
-0.0104747
-0.0105287
-0.010613
-0.0107339
-0.010902
-0.0111355
-0.0114692
-0.0119711
-0.0127759
-0.014261
-0.0180221
-0.0105854
-0.0105556
-0.01052
-0.0104868
-0.0104639
-0.0104556
-0.0104656
-0.0104973
-0.0105547
-0.0106425
-0.0107672
-0.0109393
-0.0111766
-0.0115114
-0.0120019
-0.012754
-0.0139755
-0.0164973
-0.0105857
-0.010559
-0.0105273
-0.0104981
-0.0104791
-0.0104746
-0.0104883
-0.0105237
-0.0105847
-0.0106759
-0.010804
-0.0109789
-0.0112168
-0.0115453
-0.0120085
-0.0126736
-0.0135887
-0.0151504
-0.0105878
-0.0105631
-0.0105348
-0.0105093
-0.0104939
-0.0104928
-0.0105098
-0.0105484
-0.0106122
-0.0107058
-0.0108352
-0.0110094
-0.0112419
-0.0115535
-0.0119725
-0.0125312
-0.0131985
-0.0141556
-0.0105916
-0.0105681
-0.0105425
-0.0105203
-0.0105082
-0.0105102
-0.0105301
-0.0105712
-0.010637
-0.0107316
-0.0108603
-0.0110303
-0.0112516
-0.0115375
-0.0119018
-0.0123505
-0.0128253
-0.0133954
-0.0105971
-0.0105739
-0.0105506
-0.0105313
-0.0105221
-0.0105269
-0.0105493
-0.0105923
-0.0106592
-0.0107536
-0.0108795
-0.0110421
-0.0112475
-0.011502
-0.0118073
-0.0121523
-0.0124751
-0.0127895
-0.010604
-0.0105806
-0.0105589
-0.0105421
-0.0105355
-0.0105428
-0.0105672
-0.0106116
-0.0106788
-0.0107715
-0.0108927
-0.0110452
-0.0112314
-0.0114511
-0.0116976
-0.0119507
-0.0121552
-0.0123042
-0.0106122
-0.010588
-0.0105674
-0.0105527
-0.0105484
-0.0105577
-0.0105836
-0.0106287
-0.0106952
-0.0107852
-0.0109
-0.0110403
-0.0112049
-0.0113891
-0.0115808
-0.0117562
-0.0118719
-0.0119181
-0.0106212
-0.0105959
-0.0105759
-0.010563
-0.0105605
-0.0105714
-0.0105984
-0.0106435
-0.0107086
-0.0107946
-0.0109018
-0.0110285
-0.011171
-0.0113209
-0.0114638
-0.0115767
-0.0116282
-0.0116132
-0.0106306
-0.010604
-0.0105842
-0.0105726
-0.0105716
-0.0105838
-0.0106113
-0.0106559
-0.0107188
-0.0108002
-0.0108989
-0.0110117
-0.0111325
-0.0112513
-0.0113531
-0.0114181
-0.0114253
-0.0113759
-0.0106399
-0.0106118
-0.010592
-0.0105815
-0.0105817
-0.0105946
-0.0106223
-0.0106659
-0.0107262
-0.0108024
-0.0108924
-0.0109916
-0.0110927
-0.0111847
-0.0112537
-0.0112837
-0.0112623
-0.0111956
-0.0106476
-0.0106184
-0.0105985
-0.0105887
-0.0105896
-0.010603
-0.0106304
-0.0106729
-0.0107305
-0.010802
-0.0108844
-0.0109724
-0.0110579
-0.0111301
-0.0111764
-0.0111844
-0.0111469
-0.0110738
-0.010654
-0.0106244
-0.0106042
-0.0105952
-0.0105967
-0.0106104
-0.0106374
-0.0106785
-0.0107334
-0.0108003
-0.0108757
-0.0109538
-0.0110264
-0.0110834
-0.0111137
-0.011108
-0.0110632
-0.0109893
-0.0106588
-0.0106298
-0.0106097
-0.0106013
-0.0106035
-0.0106173
-0.0106437
-0.0106832
-0.010735
-0.0107973
-0.010866
-0.0109352
-0.010997
-0.0110421
-0.0110616
-0.0110489
-0.0110034
-0.0109339
-0.0106603
-0.010633
-0.0106138
-0.0106063
-0.0106092
-0.0106231
-0.0106488
-0.0106864
-0.0107353
-0.0107933
-0.0108565
-0.0109191
-0.0109738
-0.0110126
-0.0110282
-0.0110161
-0.0109766
-0.0109167
-0.0106555
-0.0106319
-0.0106151
-0.0106092
-0.0106131
-0.010627
-0.0106518
-0.0106877
-0.0107341
-0.0107889
-0.0108487
-0.0109082
-0.0109609
-0.011
-0.0110196
-0.0110159
-0.0109891
-0.0109433
-0.0106403
-0.0106236
-0.0106117
-0.0106086
-0.0106139
-0.010628
-0.010652
-0.0106863
-0.0107306
-0.0107836
-0.0108423
-0.0109023
-0.0109583
-0.0110041
-0.0110345
-0.0110455
-0.0110361
-0.0110074
-0.0106112
-0.0106049
-0.0106013
-0.0106027
-0.01061
-0.0106244
-0.0106472
-0.0106794
-0.0107215
-0.0107728
-0.0108314
-0.0108937
-0.0109551
-0.0110104
-0.0110542
-0.0110818
-0.0110898
-0.0110769
-0.0105685
-0.0105761
-0.0105831
-0.0105896
-0.0105981
-0.010611
-0.01063
-0.0106568
-0.0106926
-0.0107375
-0.0107909
-0.0108503
-0.0109122
-0.0109719
-0.011024
-0.0110629
-0.011083
-0.0110799
-0.0105384
-0.0105578
-0.0105736
-0.0105837
-0.0105919
-0.0106008
-0.0106122
-0.0106277
-0.0106485
-0.0106754
-0.0107084
-0.0107462
-0.0107866
-0.0108261
-0.0108606
-0.0108852
-0.0108939
-0.0108815
-0.0105296
-0.0105555
-0.0105762
-0.0105887
-0.0105972
-0.0106041
-0.0106107
-0.0106181
-0.0106274
-0.010639
-0.0106531
-0.0106689
-0.0106847
-0.0106981
-0.0107059
-0.0107042
-0.0106879
-0.0106516
-0.0105363
-0.0105649
-0.0105881
-0.0106027
-0.0106126
-0.0106192
-0.0106234
-0.0106257
-0.0106266
-0.010626
-0.0106238
-0.0106193
-0.0106111
-0.0105973
-0.0105756
-0.0105432
-0.0104962
-0.01043
-0.0105523
-0.0105809
-0.0106052
-0.0106222
-0.0106344
-0.0106426
-0.010647
-0.0106475
-0.0106438
-0.0106357
-0.0106223
-0.0106028
-0.0105758
-0.0105397
-0.0104926
-0.0104325
-0.0103568
-0.010262
-0.0105718
-0.010599
-0.010624
-0.0106437
-0.0106593
-0.0106705
-0.0106771
-0.0106784
-0.0106739
-0.0106625
-0.0106432
-0.0106146
-0.0105753
-0.0105235
-0.0104578
-0.0103764
-0.0102775
-0.0101592
-0.0105906
-0.010616
-0.010642
-0.0106651
-0.0106847
-0.0106999
-0.0107099
-0.010714
-0.0107111
-0.0106999
-0.0106789
-0.0106463
-0.0106004
-0.0105394
-0.0104617
-0.0103658
-0.0102504
-0.0101145
-0.0106061
-0.0106304
-0.0106582
-0.0106851
-0.010709
-0.0107286
-0.0107429
-0.0107509
-0.0107513
-0.0107425
-0.0107227
-0.0106897
-0.0106417
-0.0105765
-0.0104923
-0.0103877
-0.0102617
-0.0101137
-0.0106171
-0.0106414
-0.010672
-0.0107032
-0.0107316
-0.0107556
-0.0107744
-0.0107868
-0.0107914
-0.0107865
-0.0107698
-0.010739
-0.0106919
-0.010626
-0.0105395
-0.0104305
-0.0102982
-0.0101425
-0.0106235
-0.0106493
-0.0106837
-0.0107194
-0.0107523
-0.0107808
-0.0108041
-0.0108212
-0.0108305
-0.0108302
-0.010818
-0.0107911
-0.0107469
-0.0106829
-0.0105968
-0.0104867
-0.0103514
-0.0101909
-0.0106254
-0.0106545
-0.0106936
-0.0107341
-0.0107714
-0.0108042
-0.0108319
-0.0108536
-0.0108679
-0.0108728
-0.0108658
-0.0108438
-0.0108041
-0.0107436
-0.0106599
-0.0105509
-0.010415
-0.0102521
-0.0106245
-0.0106575
-0.0107008
-0.0107452
-0.010786
-0.0108221
-0.0108533
-0.0108788
-0.0108973
-0.0109065
-0.010904
-0.0108865
-0.0108509
-0.0107941
-0.0107132
-0.0106059
-0.0104706
-0.0103069
0.00193652
0.0019673
0.00197514
0.00194031
0.00186116
0.00173943
0.0015773
0.00137733
0.0011423
0.000874859
0.000577637
0.000252176
-0.00010009
-0.000478155
-0.00088135
-0.00130916
-0.00176104
-0.00223625
-0.00273357
-0.00325119
-0.00378649
-0.00433585
-0.00489455
-0.00545663
-0.00601478
-0.00656035
-0.00708335
-0.00757247
-0.00801524
-0.00839821
-0.00870718
-0.00892755
-0.00904465
-0.00904417
-0.00891263
-0.00863784
-0.0082094
-0.00761912
-0.00686148
-0.00593397
-0.00483742
-0.00357621
-0.00215843
-0.000595386
0.00109855
0.0029039
0.00479935
0.0067606
0.008761
0.0107721
0.0127643
0.0147072
0.0165704
0.0183235
0.019937
0.0213827
0.0226338
0.0236653
0.0244546
0.0249816
0.0252296
0.0251856
0.0248405
0.0241891
0.0232328
0.0219785
0.0204396
0.0186365
0.0165966
0.0143541
0.0119496
0.0094296
0.00684458
0.00424798
0.00169386
-0.000765386
-0.00307993
-0.00520713
-0.00711114
-0.00876502
-0.010152
-0.0112658
-0.0121105
-0.0126997
-0.0130547
-0.0132029
-0.0131755
-0.0130053
-0.0127245
-0.0123633
-0.0119485
-0.0115028
-0.0110446
-0.0105885
-0.0101455
-0.00972418
-0.00933084
-0.00897039
-0.00864634
-0.00836085
-0.00811459
-0.00790668
-0.00773473
-0.00759506
-0.00748307
-0.00739366
-0.00732161
-0.00726189
-0.00720988
-0.00716153
-0.00711342
-0.00706274
-0.00700735
-0.00694571
-0.00687685
-0.00680033
-0.00671616
-0.00662476
-0.00652687
-0.00642346
-0.00631569
-0.0062048
-0.00609189
-0.00597838
-0.00586532
-0.00575372
-0.00564448
-0.0055383
-0.00543576
-0.00533728
-0.00524314
-0.00515348
-0.00506834
-0.00498766
-0.00491129
-0.00483905
-0.00477068
-0.0047059
-0.00464442
-0.00458591
-0.00453007
-0.00447658
-0.00442514
-0.00437547
-0.00432728
-0.00428032
-0.00423434
-0.00418914
-0.00414449
-0.00410023
-0.00405618
-0.00401219
-0.00396814
-0.00392389
-0.00387935
-0.00383443
-0.00378904
-0.00374312
-0.00369661
-0.00364946
-0.00360161
-0.00355304
-0.00350368
-0.00345351
-0.00340246
-0.00335045
-0.00329737
-0.00324303
-0.00318718
-0.00312949
-0.00306942
-0.00300643
-0.0029399
-0.00286914
-0.0027937
-0.00271326
-0.00262784
-0.00253972
-0.00245332
-0.00233857
0.00195475
0.00198586
0.00199289
0.0019583
0.00188342
0.00177129
0.00162417
0.00144421
0.00123361
0.00099439
0.000727968
0.000435897
0.000119022
-0.000222185
-0.000587509
-0.000976867
-0.00139016
-0.00182711
-0.00228709
-0.00276892
-0.00327068
-0.00378955
-0.00432162
-0.00486179
-0.00540364
-0.00593935
-0.00645966
-0.00695393
-0.00741018
-0.00781523
-0.00815498
-0.00841464
-0.00857912
-0.00863347
-0.00856332
-0.00835542
-0.00799814
-0.00748201
-0.00680014
-0.00594874
-0.00492748
-0.00373987
-0.00239296
-0.00089504
0.000737062
0.00248617
0.00433065
0.00624601
0.00820545
0.0101804
0.0121408
0.0140562
0.0158955
0.0176284
0.0192249
0.0206567
0.0218967
0.02292
0.0237038
0.024228
0.0244752
0.0244325
0.0240905
0.0234453
0.0224986
0.0212577
0.0197366
0.0179561
0.0159443
0.013736
0.0113727
0.00890111
0.00637245
0.00384023
0.00135854
-0.00102
-0.00324794
-0.00528426
-0.00709575
-0.00865824
-0.00995793
-0.0109918
-0.0117669
-0.0122993
-0.0126123
-0.0127341
-0.0126957
-0.012529
-0.0122644
-0.0119297
-0.011549
-0.0111423
-0.0107256
-0.0103112
-0.0099083
-0.00952404
-0.00916383
-0.00883193
-0.00853163
-0.00826514
-0.00803347
-0.00783624
-0.00767173
-0.00753697
-0.00742811
-0.0073407
-0.0072701
-0.00721174
-0.00716132
-0.00711499
-0.00706941
-0.00702181
-0.00696999
-0.00691231
-0.00684768
-0.00677554
-0.00669577
-0.00660869
-0.00651492
-0.00641536
-0.00631109
-0.0062033
-0.00609323
-0.00598205
-0.00587093
-0.00576089
-0.00565285
-0.00554755
-0.0054456
-0.00534746
-0.00525344
-0.00516372
-0.00507836
-0.00499735
-0.00492057
-0.00484784
-0.00477894
-0.0047136
-0.00465154
-0.00459246
-0.00453605
-0.00448201
-0.00443004
-0.00437986
-0.0043312
-0.00428379
-0.0042374
-0.00419181
-0.00414681
-0.00410223
-0.00405789
-0.00401364
-0.00396934
-0.00392489
-0.00388016
-0.00383507
-0.00378954
-0.0037435
-0.00369688
-0.00364963
-0.0036017
-0.00355304
-0.00350362
-0.00345338
-0.00340225
-0.00335016
-0.00329698
-0.00324253
-0.00318657
-0.00312873
-0.00306863
-0.00300574
-0.00293947
-0.00286932
-0.00279482
-0.00271582
-0.00263249
-0.00254741
-0.00246454
-0.00235503
0.00216449
0.00218094
0.00217268
0.00212644
0.00204506
0.00193209
0.00178984
0.00162024
0.00142491
0.00120533
0.000962489
0.000696959
0.000408813
9.77032e-05
-0.000237047
-0.000596315
-0.000981024
-0.00139197
-0.00182963
-0.00229396
-0.00278415
-0.00329847
-0.00383402
-0.00438655
-0.00495029
-0.00551783
-0.00608002
-0.00662599
-0.00714318
-0.00761751
-0.00803363
-0.00837525
-0.00862559
-0.00876785
-0.00878581
-0.00866438
-0.00839023
-0.00795236
-0.00734268
-0.00655658
-0.0055932
-0.00445499
-0.00314722
-0.00168274
-7.58779e-05
0.00165415
0.00348488
0.00539097
0.0073447
0.00931655
0.0112758
0.013191
0.0150309
0.0167645
0.0183618
0.0197942
0.0210349
0.0220589
0.0228438
0.0233694
0.0236186
0.0235787
0.0232403
0.0225987
0.0216557
0.0204186
0.0189014
0.0171252
0.0151185
0.0129171
0.0105635
0.00810578
0.00559669
0.00309138
0.000645517
-0.00168713
-0.00385691
-0.00582181
-0.00754989
-0.00901887
-0.0102173
-0.0111454
-0.0118145
-0.0122452
-0.0124653
-0.0125073
-0.0124052
-0.0121926
-0.0119003
-0.011555
-0.0111787
-0.0107884
-0.0103968
-0.010013
-0.0096431
-0.00929183
-0.00896272
-0.00865879
-0.00838268
-0.00813643
-0.00792123
-0.00773708
-0.00758281
-0.00745605
-0.00735351
-0.00727129
-0.0072052
-0.00715102
-0.00710474
-0.00706268
-0.00702158
-0.00697869
-0.00693174
-0.00687904
-0.00681939
-0.00675214
-0.00667708
-0.00659443
-0.00650477
-0.00640893
-0.00630798
-0.00620306
-0.00609549
-0.0059864
-0.00587697
-0.00576828
-0.00566126
-0.0055567
-0.00545523
-0.00535735
-0.0052634
-0.0051736
-0.00508804
-0.00500672
-0.00492955
-0.00485637
-0.00478698
-0.00472113
-0.00465854
-0.00459892
-0.00454199
-0.00448743
-0.00443496
-0.0043843
-0.00433518
-0.00428734
-0.00424055
-0.00419459
-0.00414925
-0.00410435
-0.00405972
-0.00401521
-0.00397067
-0.003926
-0.00388109
-0.00383583
-0.00379015
-0.00374397
-0.00369723
-0.00364988
-0.00360186
-0.00355312
-0.00350362
-0.00345331
-0.00340211
-0.00334995
-0.00329669
-0.00324216
-0.00318613
-0.00312828
-0.00306823
-0.00300552
-0.00293965
-0.00287018
-0.00279678
-0.00271941
-0.00263831
-0.00255625
-0.00247742
-0.0023716
0.00257732
0.00256101
0.00252004
0.0024496
0.00235168
0.00222861
0.00208205
0.00191327
0.0017234
0.001513
0.00128212
0.00103021
0.000756166
0.000458331
0.000134614
-0.000217381
-0.000600171
-0.00101617
-0.00146742
-0.00195536
-0.00248046
-0.00304199
-0.00363766
-0.00426341
-0.00491314
-0.00557859
-0.0062492
-0.00691222
-0.00755275
-0.00815411
-0.00869811
-0.0091656
-0.009537
-0.00979294
-0.00991492
-0.00988601
-0.00969146
-0.00931939
-0.00876136
-0.00801288
-0.00707314
-0.00594453
-0.00463504
-0.00315859
-0.00153205
0.000223934
0.00208526
0.00402493
0.00601362
0.00802037
0.0100132
0.0119599
0.0138284
0.0155872
0.0172065
0.0186577
0.0199141
0.0209514
0.0217472
0.022282
0.0225385
0.0225047
0.0221711
0.0215317
0.0205874
0.0193453
0.0178189
0.016029
0.0140046
0.0117819
0.00940452
0.0069224
0.0043903
0.00186599
-0.000591931
-0.00292666
-0.00508564
-0.007022
-0.0087005
-0.0100984
-0.0112044
-0.0120199
-0.0125594
-0.0128485
-0.0129215
-0.0128179
-0.0125792
-0.0122453
-0.0118515
-0.0114274
-0.010995
-0.01057
-0.0101618
-0.00977554
-0.00941351
-0.00907643
-0.00876476
-0.00847922
-0.00822096
-0.00799124
-0.00779093
-0.00762005
-0.00747752
-0.00736123
-0.00726813
-0.00719451
-0.00713636
-0.00708964
-0.00705042
-0.0070151
-0.00698044
-0.00694367
-0.0069025
-0.00685518
-0.00680048
-0.00673771
-0.00666664
-0.00658748
-0.00650082
-0.00640753
-0.0063087
-0.00620553
-0.00609931
-0.0059913
-0.00588271
-0.00577462
-0.00566801
-0.00556371
-0.00546237
-0.00536451
-0.0052705
-0.00518056
-0.00509481
-0.00501325
-0.00493581
-0.00486233
-0.00479262
-0.00472644
-0.00466351
-0.00460356
-0.00454628
-0.00449139
-0.0044386
-0.00438762
-0.00433819
-0.00429007
-0.004243
-0.00419678
-0.0041512
-0.00410607
-0.00406123
-0.00401653
-0.00397182
-0.00392699
-0.00388193
-0.00383654
-0.00379074
-0.00374445
-0.00369762
-0.00365019
-0.00360209
-0.00355329
-0.00350373
-0.00345336
-0.00340212
-0.0033499
-0.00329661
-0.00324206
-0.00318605
-0.00312827
-0.00306838
-0.00300597
-0.00294061
-0.00287191
-0.00279964
-0.00272379
-0.00264463
-0.00256485
-0.00248825
-0.00238727
0.00314718
0.00308419
0.00299697
0.00289287
0.00277153
0.00263238
0.00247548
0.00230086
0.00210814
0.00189645
0.00166432
0.00140966
0.00112965
0.000820851
0.000479266
0.000100541
-0.000319781
-0.000785936
-0.00130157
-0.00186934
-0.00249046
-0.00316433
-0.00388813
-0.00465655
-0.00546151
-0.00629213
-0.00713472
-0.00797301
-0.00878842
-0.00956051
-0.0102676
-0.0108872
-0.0113971
-0.0117756
-0.0120026
-0.0120599
-0.0119325
-0.0116085
-0.01108
-0.010343
-0.00939758
-0.00824896
-0.0069082
-0.00539024
-0.00371399
-0.00190227
1.86487e-05
0.00201968
0.00406959
0.00613569
0.00818462
0.010183
0.0120981
0.0138982
0.0155534
0.0170354
0.0183182
0.0193779
0.020193
0.0207442
0.0210147
0.0209916
0.0206656
0.0200303
0.0190856
0.0178376
0.0162992
0.0144907
0.0124408
0.0101864
0.00777185
0.00524868
0.00267376
0.000107573
-0.00238808
-0.00475268
-0.0069298
-0.00886873
-0.0105283
-0.0118807
-0.0129122
-0.0136231
-0.014028
-0.0141557
-0.0140457
-0.0137458
-0.013307
-0.0127794
-0.0122077
-0.0116287
-0.0110693
-0.0105464
-0.0100682
-0.00963626
-0.00924826
-0.00889998
-0.00858732
-0.00830728
-0.00805827
-0.00783975
-0.00765151
-0.00749299
-0.00736274
-0.00725842
-0.00717693
-0.00711449
-0.00706702
-0.0070304
-0.00700067
-0.00697417
-0.0069476
-0.00691814
-0.00688347
-0.0068418
-0.00679192
-0.00673314
-0.00666529
-0.00658864
-0.00650387
-0.00641193
-0.006314
-0.00621138
-0.00610544
-0.0059975
-0.00588883
-0.00578057
-0.00567375
-0.00556919
-0.0054676
-0.00536949
-0.00527523
-0.00518506
-0.00509909
-0.00501732
-0.00493968
-0.00486602
-0.00479612
-0.00472976
-0.00466665
-0.00460652
-0.00454907
-0.004494
-0.00444104
-0.00438989
-0.0043403
-0.00429201
-0.00424478
-0.00419841
-0.00415268
-0.00410741
-0.00406244
-0.0040176
-0.00397278
-0.00392784
-0.00388267
-0.00383719
-0.0037913
-0.00374494
-0.00369804
-0.00365054
-0.00360239
-0.00355354
-0.00350394
-0.00345353
-0.00340225
-0.00335002
-0.00329672
-0.00324221
-0.00318627
-0.00312865
-0.00306903
-0.00300705
-0.00294232
-0.0028745
-0.00280339
-0.00272902
-0.00265164
-0.00257361
-0.00249795
-0.00240335
0.00381315
0.00369532
0.00355461
0.0034123
0.00326434
0.00310581
0.00293395
0.00274647
0.00254079
0.00231388
0.00206219
0.00178148
0.00146678
0.00111245
0.000712315
0.000259954
-0.00025091
-0.000825941
-0.00146966
-0.00218488
-0.00297222
-0.00382957
-0.00475178
-0.00573041
-0.00675368
-0.00780652
-0.00887089
-0.00992614
-0.0109496
-0.0119171
-0.0128037
-0.0135844
-0.014235
-0.0147325
-0.0150561
-0.0151874
-0.0151116
-0.0148176
-0.0142982
-0.0135509
-0.0125779
-0.0113871
-0.00999125
-0.00840724
-0.00665631
-0.00476377
-0.00275838
-0.00067164
0.00146292
0.00361061
0.00573634
0.00780543
0.00978425
0.0116408
0.0133452
0.0148696
0.0161886
0.0172794
0.0181213
0.0186957
0.0189866
0.0189801
0.0186671
0.0180411
0.0171002
0.0158498
0.0143017
0.0124757
0.0103999
0.00811156
0.00565584
0.00308559
0.000459682
-0.00215886
-0.00470514
-0.00711498
-0.00932779
-0.0112892
-0.0129527
-0.0142841
-0.0152642
-0.0158895
-0.0161723
-0.0161406
-0.0158369
-0.0153148
-0.0146344
-0.0138575
-0.0130416
-0.0122354
-0.0114754
-0.0107848
-0.0101739
-0.00964322
-0.00918634
-0.0087937
-0.00845547
-0.00816343
-0.00791171
-0.00769662
-0.00751576
-0.00736714
-0.00724837
-0.00715639
-0.00708758
-0.00703787
-0.00700285
-0.00697813
-0.00695956
-0.00694328
-0.00692586
-0.00690439
-0.00687649
-0.00684037
-0.00679484
-0.0067393
-0.00667369
-0.00659841
-0.00651429
-0.00642243
-0.00632415
-0.00622088
-0.0061141
-0.00600523
-0.00589561
-0.00578645
-0.00567878
-0.00557348
-0.00547125
-0.00537261
-0.00527793
-0.00518742
-0.00510119
-0.00501924
-0.00494146
-0.00486769
-0.00479773
-0.00473132
-0.00466817
-0.00460801
-0.00455052
-0.00449542
-0.00444242
-0.00439123
-0.00434159
-0.00429324
-0.00424596
-0.00419953
-0.00415373
-0.0041084
-0.00406336
-0.00401846
-0.00397357
-0.00392856
-0.00388333
-0.00383779
-0.00379185
-0.00374543
-0.00369848
-0.00365094
-0.00360274
-0.00355386
-0.00350422
-0.00345379
-0.0034025
-0.00335028
-0.00329701
-0.00324257
-0.00318677
-0.00312938
-0.00307013
-0.00300869
-0.00294471
-0.00287789
-0.00280803
-0.00273514
-0.00265947
-0.00258286
-0.00250748
-0.00242011
0.00449506
0.00431957
0.00412348
0.00394251
0.00376743
0.00358742
0.00339576
0.00318694
0.00295541
0.00269533
0.00240046
0.00206401
0.00167856
0.00123616
0.000728568
0.000147738
-0.000513676
-0.00126166
-0.00210017
-0.00303051
-0.00405081
-0.00515561
-0.0063357
-0.00757807
-0.0088661
-0.01018
-0.0114971
-0.0127927
-0.0140406
-0.0152138
-0.0162851
-0.0172279
-0.0180169
-0.0186286
-0.0190419
-0.0192388
-0.0192049
-0.0189296
-0.0184068
-0.0176356
-0.0166205
-0.015371
-0.0139014
-0.0122309
-0.0103833
-0.0083867
-0.00627273
-0.00407572
-0.00183193
0.000421427
0.00264712
0.00480873
0.00687146
0.00880271
0.0105725
0.0121535
0.0135213
0.0146541
0.0155322
0.0161384
0.0164572
0.0164749
0.0161819
0.0155713
0.0146402
0.0133926
0.0118394
0.00999956
0.00790086
0.00558047
0.00308449
0.00046706
-0.00221106
-0.00488442
-0.00748522
-0.00994593
-0.0122021
-0.0141951
-0.0158746
-0.0172014
-0.0181492
-0.0187091
-0.0188891
-0.0187141
-0.0182255
-0.0174793
-0.0165419
-0.0154853
-0.0143801
-0.0132898
-0.0122648
-0.0113395
-0.0105317
-0.00984415
-0.0092691
-0.00879242
-0.00839819
-0.00807179
-0.00780161
-0.00757926
-0.00739883
-0.00725585
-0.0071462
-0.00706552
-0.00700922
-0.0069726
-0.0069507
-0.00693866
-0.00693196
-0.00692643
-0.00691844
-0.00690491
-0.00688342
-0.00685219
-0.00681009
-0.00675667
-0.00669202
-0.00661675
-0.00653189
-0.00643873
-0.00633879
-0.00623366
-0.00612494
-0.00601418
-0.00590279
-0.00579202
-0.00568296
-0.00557648
-0.00547328
-0.00537388
-0.00527863
-0.00518771
-0.00510121
-0.0050191
-0.00494125
-0.00486749
-0.00479757
-0.00473123
-0.00466818
-0.00460812
-0.00455074
-0.00449574
-0.00444282
-0.00439171
-0.00434214
-0.00429385
-0.0042466
-0.00420019
-0.00415441
-0.00410908
-0.00406404
-0.00401913
-0.00397421
-0.00392919
-0.00388393
-0.00383836
-0.00379239
-0.00374594
-0.00369896
-0.00365138
-0.00360316
-0.00355425
-0.0035046
-0.00345416
-0.00340288
-0.00335067
-0.00329747
-0.00324314
-0.00318753
-0.00313045
-0.00307164
-0.00301083
-0.00294771
-0.00288197
-0.00281342
-0.00274202
-0.00266799
-0.00259255
-0.00251705
-0.00243702
0.00509604
0.00486527
0.0046168
0.00439961
0.004198
0.00399418
0.00377659
0.00353573
0.00326245
0.00294761
0.00258198
0.00215603
0.00165992
0.00108368
0.000417681
-0.000346811
-0.00121689
-0.00219728
-0.00328962
-0.00449191
-0.00579816
-0.00719818
-0.00867771
-0.0102187
-0.0117997
-0.0133965
-0.0149827
-0.0165305
-0.0180111
-0.0193957
-0.0206556
-0.0217634
-0.0226928
-0.0234201
-0.023924
-0.0241864
-0.024193
-0.0239334
-0.0234025
-0.0226009
-0.021534
-0.0202128
-0.0186536
-0.0168778
-0.0149123
-0.0127881
-0.0105402
-0.00820612
-0.00582558
-0.00343891
-0.00108612
0.00119406
0.00336516
0.00539357
0.00724903
0.00890468
0.010337
0.0115255
0.012452
0.0131005
0.0134566
0.0135076
0.0132426
0.012655
0.0117409
0.0105028
0.00895054
0.00710232
0.00498556
0.0026376
0.000105335
-0.00255571
-0.00528286
-0.00800832
-0.0106615
-0.0131718
-0.0154712
-0.0174973
-0.0191959
-0.0205234
-0.021449
-0.0219572
-0.0220511
-0.021751
-0.0210949
-0.0201378
-0.0189486
-0.017606
-0.0161916
-0.0147834
-0.0134477
-0.0122342
-0.0111725
-0.0102728
-0.00952957
-0.00892646
-0.00844227
-0.00805564
-0.00774808
-0.00750513
-0.00731599
-0.0071725
-0.00706793
-0.006996
-0.0069507
-0.00692623
-0.00691688
-0.00691713
-0.00692191
-0.00692666
-0.00692746
-0.00692105
-0.00690492
-0.00687734
-0.00683731
-0.00678453
-0.00671933
-0.00664256
-0.0065555
-0.00645967
-0.00635681
-0.00624869
-0.00613706
-0.00602357
-0.0059097
-0.00579678
-0.00568588
-0.0055779
-0.00547352
-0.00537322
-0.00527732
-0.00518598
-0.00509924
-0.00501704
-0.00493922
-0.00486556
-0.00479582
-0.00472969
-0.00466687
-0.00460704
-0.0045499
-0.00449512
-0.00444241
-0.00439149
-0.00434208
-0.00429393
-0.00424681
-0.0042005
-0.0041548
-0.00410954
-0.00406454
-0.00401966
-0.00397477
-0.00392975
-0.0038845
-0.00383893
-0.00379294
-0.00374648
-0.00369949
-0.0036519
-0.00360366
-0.00355474
-0.00350508
-0.00345464
-0.00340337
-0.00335122
-0.00329809
-0.00324391
-0.00318854
-0.00313181
-0.00307352
-0.00301341
-0.0029512
-0.0028866
-0.00281937
-0.00274941
-0.00267689
-0.00260241
-0.00252655
-0.00245333
0.00551096
0.00523199
0.00493798
0.00468874
0.0044613
0.00423043
0.00397916
0.0036936
0.00336068
0.00296779
0.00250264
0.00195314
0.00130745
0.000554328
-0.00031625
-0.00131236
-0.00243934
-0.00369905
-0.00508931
-0.00660354
-0.0082307
-0.00995545
-0.0117585
-0.0136172
-0.0155061
-0.0173976
-0.0192625
-0.021071
-0.0227925
-0.0243967
-0.025854
-0.0271358
-0.0282151
-0.0290673
-0.0296702
-0.0300053
-0.0300577
-0.029817
-0.0292784
-0.0284434
-0.027318
-0.0259145
-0.0242512
-0.0223522
-0.0202473
-0.0179709
-0.0155617
-0.0130612
-0.0105132
-0.0079617
-0.00545039
-0.003021
-0.000712374
0.00144034
0.0034062
0.00515856
0.00667485
0.00793595
0.00892555
0.00962931
0.0100343
0.0101286
0.00990151
0.00934574
0.00845721
0.00723652
0.00569271
0.00384314
0.00171496
-0.000654218
-0.00321661
-0.00591521
-0.0086854
-0.011457
-0.0141569
-0.0167113
-0.0190492
-0.0211045
-0.0228195
-0.0241464
-0.0250521
-0.0255146
-0.0255324
-0.0251211
-0.0243147
-0.023165
-0.0217404
-0.0201224
-0.0184002
-0.0166634
-0.0149938
-0.0134576
-0.0120998
-0.0109425
-0.00998641
-0.00921646
-0.00860815
-0.008134
-0.00776828
-0.00748943
-0.00728059
-0.0071288
-0.00702372
-0.00695654
-0.00691929
-0.0069047
-0.00690605
-0.00691698
-0.00693175
-0.0069453
-0.00695335
-0.00695245
-0.00694003
-0.0069144
-0.0068747
-0.00682086
-0.00675349
-0.0066737
-0.00658303
-0.00648329
-0.00637643
-0.0062644
-0.00614909
-0.00603225
-0.00591544
-0.0058
-0.00568702
-0.00557738
-0.00547173
-0.00537052
-0.00527401
-0.00518232
-0.00509544
-0.00501327
-0.0049356
-0.00486219
-0.00479275
-0.00472697
-0.00466451
-0.00460505
-0.00454826
-0.00449382
-0.00444142
-0.00439077
-0.00434161
-0.00429368
-0.00424675
-0.0042006
-0.00415504
-0.00410989
-0.00406497
-0.00402016
-0.00397533
-0.00393034
-0.00388511
-0.00383955
-0.00379357
-0.00374711
-0.0037001
-0.0036525
-0.00360426
-0.00355533
-0.00350567
-0.00345525
-0.00340401
-0.00335191
-0.00329889
-0.00324488
-0.00318977
-0.00313343
-0.00307569
-0.00301631
-0.00295503
-0.00289155
-0.00282559
-0.00275697
-0.00268578
-0.0026121
-0.00253571
-0.00246831
0.00563823
0.00532213
0.00499248
0.00471637
0.00446354
0.0042015
0.0039079
0.0035644
0.00315403
0.00266085
0.00206982
0.00136675
0.000538523
-0.000426403
-0.00153727
-0.0028002
-0.00421747
-0.00578696
-0.00750179
-0.00935036
-0.0113166
-0.0133804
-0.0155182
-0.0177037
-0.0199085
-0.0221027
-0.0242552
-0.0263342
-0.0283081
-0.030145
-0.0318139
-0.0332847
-0.034529
-0.0355205
-0.036236
-0.0366556
-0.0367632
-0.0365477
-0.0360047
-0.0351357
-0.033947
-0.0324523
-0.030672
-0.0286327
-0.0263673
-0.0239139
-0.0213153
-0.0186177
-0.0158691
-0.0131186
-0.010414
-0.00780096
-0.00532155
-0.00301317
-0.000908003
0.000967129
0.00259043
0.00394437
0.00501461
0.00578892
0.00625622
0.00640598
0.00622812
0.00571462
0.00486104
0.0036671
0.00214053
0.000298095
-0.00183326
-0.00421556
-0.00680002
-0.00952811
-0.0123333
-0.0151431
-0.0178816
-0.0204725
-0.0228416
-0.0249196
-0.0266454
-0.0279678
-0.0288507
-0.0292685
-0.0292145
-0.028701
-0.0277578
-0.0264331
-0.024793
-0.0229191
-0.0209044
-0.0188467
-0.0168405
-0.0149677
-0.01329
-0.0118439
-0.0106406
-0.00966977
-0.00890645
-0.00831866
-0.00787384
-0.00754299
-0.00730234
-0.00713318
-0.00702076
-0.00695302
-0.00691958
-0.00691143
-0.00692047
-0.00693939
-0.00696164
-0.00698161
-0.00699462
-0.00699701
-0.00698615
-0.00696043
-0.00691915
-0.00686251
-0.00679137
-0.00670717
-0.00661172
-0.00650708
-0.00639542
-0.00627886
-0.00615941
-0.00603891
-0.00591895
-0.00580089
-0.00568581
-0.00557456
-0.00546773
-0.00536573
-0.00526876
-0.00517688
-0.00509004
-0.00500806
-0.00493071
-0.00485771
-0.00478873
-0.00472343
-0.00466147
-0.00460249
-0.00454615
-0.00449214
-0.00444013
-0.00438984
-0.00434099
-0.00429333
-0.00424664
-0.00420069
-0.0041553
-0.00411028
-0.00406548
-0.00402075
-0.00397598
-0.00393104
-0.00388584
-0.00384029
-0.00379432
-0.00374786
-0.00370085
-0.00365324
-0.00360499
-0.00355605
-0.0035064
-0.00345599
-0.00340479
-0.00335276
-0.00329986
-0.00324603
-0.0031912
-0.00313525
-0.00307805
-0.00301939
-0.002959
-0.00289656
-0.00283176
-0.00276432
-0.00269425
-0.00262122
-0.00254421
-0.00248136
0.005394
0.00505482
0.00470165
0.00440452
0.00412666
0.00382926
0.00348507
0.00307166
0.00256852
0.0019568
0.00121921
0.000340175
-0.000693883
-0.00189385
-0.00326716
-0.00481705
-0.00654196
-0.0084353
-0.0104854
-0.0126761
-0.0149867
-0.0173934
-0.0198694
-0.0223858
-0.024912
-0.0274163
-0.029866
-0.0322278
-0.0344683
-0.0365538
-0.0384513
-0.0401286
-0.0415553
-0.0427029
-0.0435461
-0.0440633
-0.0442369
-0.0440546
-0.043512
-0.0426098
-0.0413551
-0.0397626
-0.0378544
-0.0356599
-0.0332148
-0.0305614
-0.0277467
-0.0248218
-0.02184
-0.0188556
-0.0159216
-0.0130885
-0.0104025
-0.00790415
-0.00562757
-0.00360037
-0.00184387
-0.00037411
0.000796793
0.00165907
0.00220395
0.0024227
0.00230641
0.00184686
0.00103915
-0.000117473
-0.00161666
-0.0034421
-0.00556688
-0.00795258
-0.0105494
-0.0132972
-0.0161275
-0.0189658
-0.0217337
-0.0243521
-0.0267439
-0.0288371
-0.0305672
-0.0318802
-0.032736
-0.0331079
-0.0329842
-0.032374
-0.0313042
-0.0298197
-0.0279838
-0.0258767
-0.0235925
-0.0212338
-0.0189043
-0.0166991
-0.0146957
-0.0129462
-0.0114746
-0.0102786
-0.00933585
-0.00861202
-0.00806897
-0.00767054
-0.00738577
-0.0071896
-0.00706221
-0.0069877
-0.00695292
-0.00694677
-0.00695958
-0.00698292
-0.00700938
-0.00703273
-0.00704788
-0.00705095
-0.00703927
-0.0070113
-0.00696656
-0.00690548
-0.00682923
-0.00673951
-0.00663843
-0.00652823
-0.00641138
-0.00629004
-0.00616635
-0.0060422
-0.0059192
-0.0057987
-0.00568174
-0.00556912
-0.00546139
-0.00535887
-0.0052617
-0.00516989
-0.00508332
-0.00500176
-0.00492493
-0.00485251
-0.00478415
-0.00471948
-0.00465812
-0.00459973
-0.00454394
-0.00449042
-0.00443886
-0.00438897
-0.00434048
-0.00429313
-0.0042467
-0.00420097
-0.00415575
-0.00411088
-0.00406619
-0.00402156
-0.00397684
-0.00393195
-0.00388677
-0.00384124
-0.00379527
-0.0037488
-0.00370177
-0.00365415
-0.00360588
-0.00355693
-0.00350728
-0.00345688
-0.00340572
-0.00335376
-0.00330097
-0.00324733
-0.00319276
-0.0031372
-0.0030805
-0.00302249
-0.00296289
-0.00290138
-0.00283757
-0.0027711
-0.00270189
-0.00262942
-0.00255178
-0.00249208
0.00472481
0.00437845
0.00401523
0.00370351
0.00340146
0.00306548
0.00266435
0.00217216
0.00156548
0.000823115
-7.37822e-05
-0.00114152
-0.00239336
-0.00383881
-0.00548285
-0.00732538
-0.00936088
-0.0115785
-0.0139622
-0.016492
-0.0191437
-0.0218907
-0.0247039
-0.0275524
-0.0304039
-0.0332251
-0.0359816
-0.0386382
-0.0411592
-0.0435088
-0.0456511
-0.0475516
-0.0491767
-0.0504957
-0.0514807
-0.0521082
-0.0523581
-0.0522168
-0.0516799
-0.050747
-0.0494255
-0.0477312
-0.0456876
-0.0433264
-0.0406866
-0.0378141
-0.0347604
-0.0315816
-0.0283368
-0.0250859
-0.0218881
-0.0187992
-0.0158707
-0.0131472
-0.0106657
-0.00845541
-0.00653767
-0.00492725
-0.003634
-0.0026649
-0.00202597
-0.00172359
-0.0017651
-0.00215818
-0.00290829
-0.00401633