/*--------------------------------*- C++ -*----------------------------------*\
  =========                 |
  \\      /  F ield         | OpenFOAM: The Open Source CFD Toolbox
   \\    /   O peration     | Website:  https://openfoam.org
    \\  /    A nd           | Version:  8
     \\/     M anipulation  |
\*---------------------------------------------------------------------------*/
FoamFile
{
    version     2.0;
    format      ascii;
    class       surfaceScalarField;
    location    "0.54";
    object      phi;
}
// * * * * * * * * * * * * * * * * * * * * * * * * * * * * * * * * * * * * * //

dimensions      [0 3 -1 0 0 0 0];

internalField   nonuniform List<scalar> 
24170
(
-4.45769e-12
4.45769e-12
4.3216e-13
-4.88985e-12
1.53176e-11
-1.48854e-11
3.90542e-11
-2.37367e-11
7.03958e-11
-3.13416e-11
1.08514e-10
-3.81184e-11
1.52877e-10
-4.43626e-11
2.03175e-10
-5.02983e-11
2.59339e-10
-5.61642e-11
3.21693e-10
-6.2354e-11
3.91241e-10
-6.95477e-11
4.70046e-10
-7.88054e-11
5.61579e-10
-9.15325e-11
6.70398e-10
-1.08819e-10
7.97542e-10
-1.27144e-10
9.10258e-10
-1.12717e-10
8.76503e-10
3.37548e-11
2.15014e-09
-1.27364e-09
-8.22927e-12
1.26869e-11
1.00207e-11
-2.31398e-11
5.87933e-11
-6.3658e-11
1.34647e-10
-9.95899e-11
2.34044e-10
-1.30739e-10
3.54332e-10
-1.58406e-10
4.9366e-10
-1.83691e-10
6.50739e-10
-2.07377e-10
8.24832e-10
-2.30257e-10
1.01605e-09
-2.53568e-10
1.2258e-09
-2.79306e-10
1.45714e-09
-3.10137e-10
1.71378e-09
-3.48175e-10
1.99502e-09
-3.90063e-10
2.27553e-09
-4.07648e-10
2.43504e-09
-2.72231e-10
1.95893e-09
5.09869e-10
4.76914e-09
-6.60067e-10
-7.20316e-12
1.98901e-11
3.00768e-11
-6.04198e-11
1.1962e-10
-1.53201e-10
2.55995e-10
-2.35965e-10
4.3333e-10
-3.08074e-10
6.46883e-10
-3.7196e-10
8.93085e-10
-4.29892e-10
1.1691e-09
-4.83397e-10
1.47274e-09
-5.3389e-10
1.8026e-09
-5.83432e-10
2.15833e-09
-6.35033e-10
2.53985e-09
-6.91658e-10
2.94348e-09
-7.51806e-10
3.34911e-09
-7.95695e-10
3.68324e-09
-7.41776e-10
3.72053e-09
-3.09521e-10
2.81441e-09
1.41599e-09
7.4328e-09
1.50743e-10
-1.12067e-12
2.10108e-11
6.20242e-11
-1.23565e-10
2.00147e-10
-2.91324e-10
4.06073e-10
-4.41891e-10
6.7152e-10
-5.7352e-10
9.89383e-10
-6.89823e-10
1.35388e-09
-7.94394e-10
1.75994e-09
-8.89453e-10
2.2028e-09
-9.7675e-10
2.67789e-09
-1.05852e-09
3.18025e-09
-1.1374e-09
3.70208e-09
-1.21349e-09
4.22499e-09
-1.27471e-09
4.69999e-09
-1.2707e-09
5.00149e-09
-1.04328e-09
4.83879e-09
-1.46822e-10
3.64447e-09
2.61032e-09
9.9788e-09
1.09847e-09
1.01716e-11
1.08392e-11
1.07119e-10
-2.20512e-10
3.02422e-10
-4.86627e-10
5.87315e-10
-7.26784e-10
9.51003e-10
-9.37209e-10
1.38372e-09
-1.12254e-09
1.8769e-09
-1.28758e-09
2.42237e-09
-1.43491e-09
3.01151e-09
-1.56589e-09
3.63457e-09
-1.68159e-09
4.27902e-09
-1.78185e-09
4.92502e-09
-1.85948e-09
5.5344e-09
-1.88409e-09
6.02712e-09
-1.76341e-09
6.23856e-09
-1.25472e-09
5.86825e-09
2.23486e-10
4.51169e-09
3.96688e-09
1.2293e-08
2.19751e-09
2.69766e-11
-1.61374e-11
1.66196e-10
-3.59731e-10
4.2778e-10
-7.48211e-10
8.01084e-10
-1.10009e-09
1.27263e-09
-1.40875e-09
1.82963e-09
-1.67954e-09
2.46016e-09
-1.91811e-09
3.15194e-09
-2.12669e-09
3.89111e-09
-2.30507e-09
4.66073e-09
-2.45121e-09
5.43791e-09
-2.55903e-09
6.18771e-09
-2.60929e-09
6.85055e-09
-2.54693e-09
7.3201e-09
-2.23297e-09
7.41448e-09
-1.3491e-09
6.86931e-09
7.68653e-10
5.45833e-09
5.37786e-09
1.43138e-08
3.43751e-09
4.92032e-11
-6.53406e-11
2.39485e-10
-5.50013e-10
5.76533e-10
-1.08526e-09
1.04722e-09
-1.57078e-09
1.63512e-09
-1.99665e-09
2.32407e-09
-2.36849e-09
3.09811e-09
-2.69215e-09
3.93996e-09
-2.96854e-09
4.82916e-09
-3.19426e-09
5.73977e-09
-3.36182e-09
6.63665e-09
-3.45591e-09
7.46856e-09
-3.44119e-09
8.15646e-09
-3.23483e-09
8.57764e-09
-2.65415e-09
8.55581e-09
-1.32727e-09
7.89186e-09
1.4326e-09
6.51925e-09
6.75046e-09
1.6007e-08
4.82601e-09
7.64961e-11
-1.41837e-10
3.26377e-10
-7.99894e-10
7.47536e-10
-1.50642e-09
1.32343e-09
-2.14668e-09
2.0343e-09
-2.70751e-09
2.86023e-09
-3.19443e-09
3.7807e-09
-3.61262e-09
4.77259e-09
-3.96043e-09
5.80777e-09
-4.22944e-09
6.85019e-09
-4.40423e-09
7.85171e-09
-4.45743e-09
8.74583e-09
-4.33531e-09
9.43917e-09
-3.92817e-09
9.80482e-09
-3.0198e-09
9.69118e-09
-1.21362e-09
8.97684e-09
2.14694e-09
7.72177e-09
8.00553e-09
1.73536e-08
6.37521e-09
1.0815e-10
-2.49987e-10
4.2518e-10
-1.11692e-09
9.37714e-10
-2.01895e-09
1.62457e-09
-2.83354e-09
2.46218e-09
-3.54512e-09
3.42658e-09
-4.15883e-09
4.49228e-09
-4.67832e-09
5.62983e-09
-5.09798e-09
6.80292e-09
-5.40253e-09
7.96514e-09
-5.56645e-09
9.05619e-09
-5.54849e-09
9.99738e-09
-5.2765e-09
1.06881e-08
-4.61891e-09
1.10092e-08
-3.34091e-09
1.08464e-08
-1.05075e-09
1.01547e-08
2.83856e-09
9.08424e-09
9.07603e-09
1.83409e-08
8.09695e-09
1.43024e-10
-3.9301e-10
5.32859e-10
-1.50676e-09
1.14154e-09
-2.62763e-09
1.94187e-09
-3.63387e-09
2.90598e-09
-4.50923e-09
4.00567e-09
-5.25852e-09
5.21042e-09
-5.88307e-09
6.48444e-09
-6.372e-09
7.78347e-09
-6.70156e-09
9.05169e-09
-6.83467e-09
1.02189e-08
-6.71573e-09
1.1199e-08
-6.25659e-09
1.18919e-08
-5.31182e-09
1.21957e-08
-3.64473e-09
1.20389e-08
-8.93875e-10
1.1443e-08
3.43448e-09
1.06145e-08
9.90452e-09
1.89572e-08
9.99814e-09
1.79646e-10
-5.72656e-10
6.448e-10
-1.97191e-09
1.35049e-09
-3.33332e-09
2.26212e-09
-4.5455e-09
3.34709e-09
-5.59419e-09
4.57301e-09
-6.48445e-09
5.90469e-09
-7.21475e-09
7.30065e-09
-7.76797e-09
8.7099e-09
-8.11081e-09
1.00693e-08
-8.19409e-09
1.13025e-08
-7.94889e-09
1.23213e-08
-7.2754e-09
1.30333e-08
-6.02386e-09
1.33601e-08
-3.97147e-09
1.32719e-08
-8.0569e-10
1.2842e-08
3.86439e-09
1.23061e-08
1.04404e-08
1.91881e-08
1.20752e-08
1.80456e-10
-7.53112e-10
6.29563e-10
-2.42102e-09
1.29705e-09
-4.0008e-09
2.14663e-09
-5.39508e-09
3.14682e-09
-6.59439e-09
4.26744e-09
-7.60507e-09
5.47583e-09
-8.42314e-09
6.73371e-09
-9.02584e-09
7.99443e-09
-9.37153e-09
9.20151e-09
-9.40117e-09
1.0289e-08
-9.03639e-09
1.11853e-08
-8.1717e-09
1.18224e-08
-6.66097e-09
1.21538e-08
-4.30283e-09
1.21827e-08
-8.34567e-10
1.19982e-08
4.04882e-09
1.18058e-08
1.06328e-08
1.90716e-08
1.19223e-08
2.355e-10
-9.88612e-10
8.09934e-10
-2.99545e-09
1.64694e-09
-4.8378e-09
2.69774e-09
-6.44589e-09
3.92226e-09
-7.81891e-09
5.28329e-09
-8.9661e-09
6.74131e-09
-9.88116e-09
8.25044e-09
-1.0535e-08
9.75558e-09
-1.08767e-08
1.11915e-08
-1.08371e-08
1.24848e-08
-1.03297e-08
1.35607e-08
-9.2476e-09
1.43556e-08
-7.45593e-09
1.48384e-08
-4.78558e-09
1.50386e-08
-1.03477e-09
1.50774e-08
4.00999e-09
1.51857e-08
1.05246e-08
1.85725e-08
1.56847e-08
2.97826e-10
-1.28644e-09
1.01288e-09
-3.71051e-09
2.03518e-09
-5.8601e-09
3.30015e-09
-7.71087e-09
4.75825e-09
-9.277e-09
6.36549e-09
-1.05733e-08
8.07668e-09
-1.15924e-08
9.84042e-09
-1.22987e-08
1.15961e-08
-1.26324e-08
1.32741e-08
-1.2515e-08
1.47992e-08
-1.18548e-08
1.61004e-08
-1.05488e-08
1.7126e-08
-8.48153e-09
1.78657e-08
-5.52532e-09
1.83766e-08
-1.54563e-09
1.88054e-08
3.58111e-09
1.93952e-08
9.93489e-09
1.75089e-08
2.04588e-08
3.57897e-10
-1.64434e-09
1.20523e-09
-4.55785e-09
2.39575e-09
-7.05062e-09
3.84725e-09
-9.16237e-09
5.50174e-09
-1.09315e-08
7.31119e-09
-1.23828e-08
9.22901e-09
-1.35102e-08
1.12041e-08
-1.42738e-08
1.31777e-08
-1.4606e-08
1.50843e-08
-1.44216e-08
1.68568e-08
-1.36274e-08
1.84375e-08
-1.21295e-08
1.9794e-08
-9.83799e-09
2.09394e-08
-6.67078e-09
2.19533e-08
-2.55954e-09
2.29953e-08
2.53911e-09
2.43026e-08
8.62764e-09
1.56477e-08
2.61638e-08
3.92788e-10
-2.03712e-09
1.31033e-09
-5.47539e-09
2.5784e-09
-8.31869e-09
4.1015e-09
-1.06855e-08
5.81873e-09
-1.26487e-08
7.68538e-09
-1.42494e-08
9.66279e-09
-1.54876e-08
1.17115e-08
-1.63225e-08
1.37878e-08
-1.66823e-08
1.58445e-08
-1.64783e-08
1.78363e-08
-1.56191e-08
1.97297e-08
-1.4023e-08
2.15178e-08
-1.16261e-08
2.32355e-08
-8.38846e-09
2.49739e-08
-4.29793e-09
2.68878e-08
6.25211e-10
2.91881e-08
6.32735e-09
1.27145e-08
3.21213e-08
3.57355e-10
-2.39448e-09
1.1783e-09
-6.29633e-09
2.2918e-09
-9.43219e-09
3.60688e-09
-1.20006e-08
5.07378e-09
-1.41156e-08
6.66536e-09
-1.5841e-08
8.36671e-09
-1.71889e-08
1.01677e-08
-1.81235e-08
1.20587e-08
-1.85733e-08
1.40299e-08
-1.84495e-08
1.60748e-08
-1.7664e-08
1.8197e-08
-1.61451e-08
2.04197e-08
-1.38488e-08
2.27957e-08
-1.07645e-08
2.54156e-08
-6.91776e-09
2.84091e-08
-2.36833e-09
3.19426e-08
2.79383e-09
8.45453e-09
3.62026e-08
1.74226e-10
-2.5687e-09
5.57379e-10
-6.67948e-09
1.05202e-09
-9.92683e-09
1.61115e-09
-1.25597e-08
2.22169e-09
-1.47262e-08
2.89512e-09
-1.65144e-08
3.66044e-09
-1.79543e-08
4.55781e-09
-1.90209e-08
5.63344e-09
-1.96489e-08
6.93648e-09
-1.97525e-08
8.51839e-09
-1.92459e-08
1.04344e-08
-1.80612e-08
1.27467e-08
-1.61611e-08
1.55277e-08
-1.35455e-08
1.88627e-08
-1.02527e-08
2.28497e-08
-6.35534e-09
2.75971e-08
-1.95357e-09
2.83325e-09
3.32184e-08
-2.60068e-10
-2.30864e-09
-8.69411e-10
-6.07014e-09
-1.73576e-09
-9.06047e-09
-2.80449e-09
-1.1491e-08
-4.02101e-09
-1.35096e-08
-5.3161e-09
-1.52193e-08
-6.60242e-09
-1.6668e-08
-7.77579e-09
-1.78475e-08
-8.71887e-09
-1.87058e-08
-9.30603e-09
-1.91654e-08
-9.40866e-09
-1.91433e-08
-8.90025e-09
-1.85696e-08
-7.66081e-09
-1.74005e-08
-5.58048e-09
-1.56259e-08
-2.56238e-09
-1.32708e-08
1.47513e-09
-1.03928e-08
6.59705e-09
-7.07549e-09
-3.41821e-09
1.28485e-08
-4.83091e-10
-1.82555e-09
-1.59482e-09
-4.95842e-09
-3.14135e-09
-7.51394e-09
-5.02173e-09
-9.61058e-09
-7.16406e-09
-1.13673e-08
-9.49967e-09
-1.28837e-08
-1.1952e-08
-1.42156e-08
-1.44317e-08
-1.53678e-08
-1.68352e-08
-1.63023e-08
-1.90468e-08
-1.69538e-08
-2.09431e-08
-1.7247e-08
-2.23988e-08
-1.71139e-08
-2.32939e-08
-1.65054e-08
-2.35199e-08
-1.53999e-08
-2.29852e-08
-1.38055e-08
-2.16188e-08
-1.17592e-08
-1.93725e-08
-9.32183e-09
-6.57154e-09
-1.62191e-08
-5.40832e-10
-1.28471e-09
-1.79486e-09
-3.70439e-09
-3.54883e-09
-5.75997e-09
-5.6939e-09
-7.46551e-09
-8.15824e-09
-8.90295e-09
-1.08813e-08
-1.01607e-08
-1.38012e-08
-1.12957e-08
-1.68465e-08
-1.23225e-08
-1.99323e-08
-1.32166e-08
-2.29588e-08
-1.39272e-08
-2.58145e-08
-1.43914e-08
-2.83804e-08
-1.4548e-08
-3.05374e-08
-1.43484e-08
-3.21731e-08
-1.37642e-08
-3.31886e-08
-1.279e-08
-3.35038e-08
-1.1444e-08
-3.30609e-08
-9.76478e-09
-7.80758e-09
-3.18248e-08
-4.82095e-10
-8.02619e-10
-1.62677e-09
-2.55972e-09
-3.25492e-09
-4.13182e-09
-5.2719e-09
-5.44853e-09
-7.61532e-09
-6.55953e-09
-1.02372e-08
-7.53881e-09
-1.30931e-08
-8.43982e-09
-1.61338e-08
-9.28181e-09
-1.92987e-08
-1.00516e-08
-2.25132e-08
-1.07127e-08
-2.56885e-08
-1.12161e-08
-2.87249e-08
-1.15116e-08
-3.15172e-08
-1.15561e-08
-3.39611e-08
-1.13203e-08
-3.59597e-08
-1.07914e-08
-3.74293e-08
-9.97433e-09
-3.83041e-08
-8.89005e-09
-7.57412e-09
-3.85375e-08
-3.69282e-10
-4.33336e-10
-1.28635e-09
-1.64265e-09
-2.62841e-09
-2.78976e-09
-4.32173e-09
-3.75521e-09
-6.31467e-09
-4.56658e-09
-8.57028e-09
-5.2832e-09
-1.10588e-08
-5.95133e-09
-1.37495e-08
-6.59105e-09
-1.66043e-08
-7.19688e-09
-1.95727e-08
-7.74424e-09
-2.2591e-08
-8.19776e-09
-2.55834e-08
-8.51922e-09
-2.84653e-08
-8.67414e-09
-3.11491e-08
-8.63655e-09
-3.35487e-08
-8.39177e-09
-3.55857e-08
-7.93733e-09
-3.71933e-08
-7.28244e-09
-6.44776e-09
-3.83197e-08
-2.47477e-10
-1.85859e-10
-9.13556e-10
-9.76572e-10
-1.93073e-09
-1.77258e-09
-3.24426e-09
-2.44169e-09
-4.81169e-09
-2.99915e-09
-6.60445e-09
-3.49045e-09
-8.60311e-09
-3.95266e-09
-1.07905e-08
-4.40367e-09
-1.3145e-08
-4.84238e-09
-1.56359e-08
-5.25333e-09
-1.82211e-08
-5.61255e-09
-2.08472e-08
-5.89312e-09
-2.34516e-08
-6.06972e-09
-2.59661e-08
-6.12205e-09
-2.8321e-08
-6.03691e-09
-3.04492e-08
-5.80908e-09
-3.22906e-08
-5.44111e-09
-4.94354e-09
-3.37948e-08
-1.42327e-10
-4.35322e-11
-5.86566e-10
-5.32333e-10
-1.30737e-09
-1.05178e-09
-2.26408e-09
-1.48497e-09
-3.42185e-09
-1.84138e-09
-4.75841e-09
-2.15389e-09
-6.26129e-09
-2.44979e-09
-7.92194e-09
-2.74303e-09
-9.72987e-09
-3.03445e-09
-1.16682e-08
-3.31499e-09
-1.37112e-08
-3.56952e-09
-1.58238e-08
-3.78051e-09
-1.79626e-08
-3.93096e-09
-2.00781e-08
-4.0066e-09
-2.21176e-08
-3.99735e-09
-2.40287e-08
-3.89797e-09
-2.57618e-08
-3.70803e-09
-3.43192e-09
-2.72734e-08
-6.44075e-11
2.08753e-11
-3.36613e-10
-2.60128e-10
-8.16847e-10
-5.71544e-10
-1.47421e-09
-8.27604e-10
-2.28056e-09
-1.03503e-09
-3.21881e-09
-1.21564e-09
-4.28108e-09
-1.38751e-09
-5.46396e-09
-1.56015e-09
-6.76357e-09
-1.73485e-09
-8.17185e-09
-1.9067e-09
-9.67437e-09
-2.067e-09
-1.12495e-08
-2.20538e-09
-1.28689e-08
-2.31152e-09
-1.4499e-08
-2.3765e-09
-1.61028e-08
-2.39364e-09
-1.76418e-08
-2.35895e-09
-1.90786e-08
-2.27118e-09
-2.13153e-09
-2.0379e-08
-1.48798e-11
3.57551e-11
-1.66214e-10
-1.08794e-10
-4.65303e-10
-2.72455e-10
-8.88396e-10
-4.0451e-10
-1.41382e-09
-5.09601e-10
-2.02908e-09
-6.00382e-10
-2.72944e-09
-6.87152e-10
-3.51419e-09
-7.75403e-10
-4.3829e-09
-8.66142e-10
-5.33256e-09
-9.57038e-10
-6.35587e-09
-1.04369e-09
-7.44051e-09
-1.12074e-09
-8.56924e-09
-1.18278e-09
-9.72073e-09
-1.22501e-09
-1.08707e-08
-1.24367e-09
-1.19933e-08
-1.23632e-09
-1.30626e-08
-1.20191e-09
-1.14037e-09
-1.40538e-08
1.0262e-11
2.54931e-11
-6.36839e-11
-3.48478e-11
-2.33418e-10
-1.02721e-10
-4.81642e-10
-1.56287e-10
-7.93174e-10
-1.9807e-10
-1.1597e-09
-2.33856e-10
-1.57863e-09
-2.68223e-10
-2.05042e-09
-3.03614e-10
-2.57601e-09
-3.40553e-10
-3.15489e-09
-3.78157e-10
-3.78391e-09
-4.14666e-10
-4.45675e-09
-4.47904e-10
-5.16389e-09
-4.7564e-10
-5.89304e-09
-4.95857e-10
-6.62979e-09
-5.06923e-10
-7.35841e-09
-5.07703e-10
-8.06272e-09
-4.97603e-10
-4.7633e-10
-8.72676e-09
1.64434e-11
9.04968e-12
-1.25606e-11
-5.84379e-12
-9.34941e-11
-2.17877e-11
-2.15721e-10
-3.406e-11
-3.70399e-10
-4.33908e-11
-5.52952e-10
-5.13043e-11
-7.62223e-10
-5.89515e-11
-9.98894e-10
-6.69439e-11
-1.26402e-09
-7.5427e-11
-1.55797e-09
-8.42108e-11
-1.87974e-09
-9.2896e-11
-2.22666e-09
-1.00981e-10
-2.59435e-09
-1.07946e-10
-2.9769e-09
-1.1331e-10
-3.36715e-09
-1.16674e-10
-3.75711e-09
-1.17743e-10
-4.1384e-09
-1.16313e-10
-1.12258e-10
-4.50247e-09
9.04968e-12
3.20589e-12
-1.85819e-11
-5.26419e-11
-9.60327e-11
-1.47337e-10
-2.06289e-10
-2.73232e-10
-3.48659e-10
-4.3287e-10
-5.25766e-10
-6.26747e-10
-7.34693e-10
-8.48003e-10
-9.64677e-10
-1.08242e-09
-1.19873e-09
-1.31099e-09
1.27388e-10
-1.27388e-10
4.49336e-10
-3.21948e-10
8.90978e-10
-4.41642e-10
1.38077e-09
-4.89793e-10
1.86188e-09
-4.81113e-10
2.29148e-09
-4.29601e-10
2.63873e-09
-3.47244e-10
2.88248e-09
-2.43756e-10
3.00906e-09
-1.26574e-10
3.00916e-09
-1.0209e-13
2.87898e-09
1.30183e-10
2.6146e-09
2.64375e-10
2.21366e-09
4.00939e-10
1.6737e-09
5.39968e-10
9.91623e-10
6.82072e-10
1.63534e-10
8.28089e-10
-8.15408e-10
9.78942e-10
-1.95075e-09
1.13534e-09
-3.24829e-09
1.29755e-09
-4.71367e-09
1.46538e-09
-6.35174e-09
1.63807e-09
-8.16599e-09
1.81425e-09
-1.01579e-08
1.99188e-09
-1.23262e-08
2.16833e-09
-1.46666e-08
2.3404e-09
-1.7171e-08
2.5044e-09
-1.98272e-08
2.65624e-09
-2.26188e-08
2.79156e-09
-2.55246e-08
2.90583e-09
-2.85191e-08
2.99449e-09
-3.15723e-08
3.05315e-09
-3.465e-08
3.07767e-09
-3.77143e-08
3.06438e-09
-4.07245e-08
3.01019e-09
-4.36373e-08
2.91274e-09
-4.64078e-08
2.77051e-09
-4.89907e-08
2.58293e-09
-5.13411e-08
2.35041e-09
-5.34155e-08
2.07439e-09
-5.51728e-08
1.75727e-09
-5.65752e-08
1.40241e-09
-5.75893e-08
1.01409e-09
-5.81869e-08
5.97592e-10
-5.83459e-08
1.59e-10
-5.80442e-08
-3.01642e-10
-5.72745e-08
-7.69762e-10
-5.6032e-08
-1.24251e-09
-5.43184e-08
-1.71358e-09
-5.21414e-08
-2.17701e-09
-4.95139e-08
-2.62744e-09
-4.64538e-08
-3.06009e-09
-4.2983e-08
-3.4708e-09
-3.9127e-08
-3.85607e-09
-3.4914e-08
-4.21295e-09
-3.03751e-08
-4.53895e-09
-2.55432e-08
-4.83191e-09
-2.04534e-08
-5.08977e-09
-1.5143e-08
-5.31036e-09
-9.65187e-09
-5.49116e-09
-4.02303e-09
-5.62883e-09
1.69696e-09
-5.71999e-09
7.45852e-09
-5.76156e-09
1.32064e-08
-5.74791e-09
1.88799e-08
-5.67344e-09
2.44137e-08
-5.53385e-09
2.97385e-08
-5.32479e-09
3.47812e-08
-5.04269e-09
3.94665e-08
-4.68529e-09
4.37187e-08
-4.25224e-09
4.74643e-08
-3.74559e-09
5.06344e-08
-3.17011e-09
5.31681e-08
-2.53365e-09
5.50152e-08
-1.84717e-09
5.61401e-08
-1.12488e-09
5.65238e-08
-3.83638e-10
5.61644e-08
3.59316e-10
5.50866e-08
1.07789e-09
5.33306e-08
1.75593e-09
5.0958e-08
2.37266e-09
4.8048e-08
2.91001e-09
4.4695e-08
3.35293e-09
4.10046e-08
3.69038e-09
3.70885e-08
3.91619e-09
3.30589e-08
4.02956e-09
2.90238e-08
4.03512e-09
2.50813e-08
3.94251e-09
2.13157e-08
3.76554e-09
1.77948e-08
3.52096e-09
1.45678e-08
3.227e-09
1.1666e-08
2.90179e-09
9.10393e-09
2.56205e-09
6.88196e-09
2.22197e-09
4.98922e-09
1.89274e-09
3.40663e-09
1.58259e-09
2.10931e-09
1.29732e-09
1.0682e-09
1.04112e-09
2.50995e-10
8.172e-10
-3.77202e-10
6.28197e-10
-8.53097e-10
4.75894e-10
-1.21379e-09
3.60696e-10
-1.49496e-09
2.8117e-10
-1.72878e-09
2.33819e-10
-1.94207e-09
2.13285e-10
-2.1551e-09
2.13034e-10
-2.38131e-09
2.26207e-10
-2.62769e-09
2.46383e-10
-2.89584e-09
2.68149e-10
-3.1832e-09
2.87364e-10
-3.4844e-09
3.01196e-10
-3.79238e-09
3.07978e-10
-4.09938e-09
3.06998e-10
-4.39765e-09
2.98274e-10
-4.68001e-09
2.8236e-10
-4.94019e-09
2.60176e-10
-5.17306e-09
2.32877e-10
-5.3748e-09
2.01739e-10
-5.54288e-09
1.68079e-10
-5.67606e-09
1.33173e-10
-5.77426e-09
9.82054e-11
-5.83847e-09
6.42142e-11
-5.87053e-09
3.20548e-11
-5.87328e-09
2.74586e-12
-5.84917e-09
-2.41087e-11
-5.80201e-09
-4.71553e-11
-5.73523e-09
-6.67846e-11
-5.65233e-09
-8.28949e-11
-5.55674e-09
-9.55949e-11
-5.45165e-09
-1.05089e-10
-5.34e-09
-1.11649e-10
-5.22441e-09
-1.15591e-10
-5.10716e-09
-1.17249e-10
-4.99019e-09
-1.16967e-10
-4.87512e-09
-1.15074e-10
-4.76323e-09
-1.11885e-10
-4.65555e-09
-1.07685e-10
-4.55282e-09
-1.02731e-10
-4.45557e-09
-9.72476e-11
-4.36414e-09
-9.14273e-11
-4.27871e-09
-8.54317e-11
-4.19932e-09
-7.93944e-11
-4.12589e-09
-7.3423e-11
-4.05829e-09
-6.76021e-11
-3.99629e-09
-6.1997e-11
-3.93964e-09
-5.66554e-11
-3.88803e-09
-5.16114e-11
-3.84114e-09
-4.68872e-11
-3.79864e-09
-4.24954e-11
-3.7602e-09
-3.84409e-11
-3.72548e-09
-3.47226e-11
-3.69415e-09
-3.13339e-11
-3.66588e-09
-2.82646e-11
-3.64038e-09
-2.55017e-11
-3.61735e-09
-2.30295e-11
-3.59652e-09
-2.08308e-11
-3.57763e-09
-1.88871e-11
-3.56045e-09
-1.71792e-11
-3.54477e-09
-1.56871e-11
-3.53038e-09
-1.43897e-11
-3.51711e-09
-1.32651e-11
-3.50482e-09
-1.22888e-11
-3.49339e-09
-1.14321e-11
-3.48273e-09
-1.06591e-11
-3.47281e-09
-9.92262e-12
-3.46365e-09
-9.16175e-12
-3.45535e-09
-8.30048e-12
-3.44809e-09
-7.25311e-12
-3.44215e-09
-5.94087e-12
-3.43783e-09
-4.32499e-12
-3.43537e-09
-2.45945e-12
-3.43493e-09
-4.37443e-13
-3.43608e-09
1.14444e-12
-3.43776e-09
1.68882e-12
-3.43813e-09
3.66882e-13
-3.4337e-09
-4.42667e-12
-3.41982e-09
-1.38834e-11
-3.38959e-09
-3.02294e-11
-3.33238e-09
-5.72073e-11
-3.23128e-09
-1.01101e-10
-3.06015e-09
-1.71131e-10
-3.8946e-10
-2.67069e-09
2.43196e-10
-3.70584e-10
7.71868e-10
-8.5062e-10
1.43359e-09
-1.10337e-09
2.10842e-09
-1.16462e-09
2.69921e-09
-1.0719e-09
3.12936e-09
-8.59753e-10
3.33988e-09
-5.57765e-10
3.2862e-09
-1.90075e-10
2.93478e-09
2.24844e-10
2.26126e-09
6.73424e-10
1.24519e-09
1.14625e-09
-1.28108e-10
1.63767e-09
-1.87177e-09
2.1446e-09
-3.99761e-09
2.66581e-09
-6.51667e-09
3.20113e-09
-9.43937e-09
3.75079e-09
-1.27751e-08
4.3147e-09
-1.65317e-08
4.89186e-09
-2.0714e-08
5.47991e-09
-2.53234e-08
6.07477e-09
-3.03558e-08
6.67049e-09
-3.58008e-08
7.2592e-09
-4.16401e-08
7.8312e-09
-4.78469e-08
8.37515e-09
-5.43849e-08
8.87843e-09
-6.1208e-08
9.32751e-09
-6.82602e-08
9.70843e-09
-7.5476e-08
1.00073e-08
-8.27808e-08
1.02107e-08
-9.00928e-08
1.03065e-08
-9.73235e-08
1.02838e-08
-1.0438e-07
1.0134e-08
-1.11166e-07
9.85072e-09
-1.17586e-07
9.43004e-09
-1.23544e-07
8.87099e-09
-1.28949e-07
8.17539e-09
-1.33714e-07
7.34795e-09
-1.3776e-07
6.39606e-09
-1.41015e-07
5.32966e-09
-1.43419e-07
4.16091e-09
-1.4492e-07
2.90377e-09
-1.45479e-07
1.57342e-09
-1.45073e-07
1.91259e-10
-1.43676e-07
-1.23794e-09
-1.41294e-07
-2.68367e-09
-1.37931e-07
-4.13247e-09
-1.33606e-07
-5.56795e-09
-1.28345e-07
-6.97494e-09
-1.22182e-07
-8.33964e-09
-1.1516e-07
-9.64991e-09
-1.07324e-07
-1.08953e-08
-9.87277e-08
-1.20673e-08
-8.94249e-08
-1.31589e-08
-7.94733e-08
-1.41645e-08
-6.89326e-08
-1.50796e-08
-5.78643e-08
-1.59002e-08
-4.63315e-08
-1.66226e-08
-3.43997e-08
-1.72422e-08
-2.21372e-08
-1.77536e-08
-9.61613e-09
-1.81499e-08
3.08561e-09
-1.84217e-08
1.58808e-08
-1.85567e-08
2.86739e-08
-1.85411e-08
4.13626e-08
-1.83621e-08
5.38342e-08
-1.80055e-08
6.59663e-08
-1.74569e-08
7.76271e-08
-1.67034e-08
8.86764e-08
-1.57346e-08
9.89683e-08
-1.45441e-08
1.08353e-07
-1.31307e-08
1.16683e-07
-1.14997e-08
1.23813e-07
-9.66395e-09
1.29611e-07
-7.64468e-09
1.33958e-07
-5.47183e-09
1.36758e-07
-3.18422e-09
1.37945e-07
-8.27775e-10
1.37488e-07
1.5354e-09
1.35397e-07
3.84717e-09
1.31727e-07
6.04215e-09
1.2658e-07
8.05668e-09
1.20103e-07
9.83059e-09
1.12482e-07
1.13109e-08
1.03942e-07
1.2456e-08
9.4733e-08
1.32391e-08
8.51172e-08
1.36509e-08
7.53586e-08
1.37011e-08
6.5707e-08
1.34172e-08
5.63854e-08
1.28425e-08
4.75805e-08
1.20319e-08
3.94358e-08
1.10465e-08
3.20496e-08
9.94826e-09
2.54768e-08
8.79471e-09
1.97337e-08
7.63582e-09
1.48041e-08
6.51226e-09
1.06457e-08
5.45571e-09
7.19634e-09
4.49045e-09
4.37859e-09
3.63495e-09
2.10391e-09
2.90288e-09
2.77077e-10
2.30273e-09
-1.1991e-09
1.83687e-09
-2.41815e-09
1.50022e-09
-3.4644e-09
1.28006e-09
-4.40852e-09
1.1574e-09
-5.30482e-09
1.10933e-09
-6.19047e-09
1.11186e-09
-7.0866e-09
1.14251e-09
-8.00069e-09
1.18224e-09
-8.92967e-09
1.21634e-09
-9.86308e-09
1.23461e-09
-1.0786e-08
1.23091e-09
-1.16815e-08
1.20251e-09
-1.25326e-08
1.14934e-09
-1.33235e-08
1.07322e-09
-1.40406e-08
9.77357e-10
-1.46735e-08
8.65759e-10
-1.52146e-08
7.42868e-10
-1.56598e-08
6.13218e-10
-1.60078e-08
4.8117e-10
-1.62603e-08
3.50708e-10
-1.64214e-08
2.25293e-10
-1.64971e-08
1.07769e-10
-1.64949e-08
5.84178e-13
-1.64236e-08
-9.54109e-11
-1.62922e-08
-1.78559e-10
-1.61102e-08
-2.48825e-10
-1.58868e-08
-3.06305e-10
-1.56308e-08
-3.51503e-10
-1.53507e-08
-3.85224e-10
-1.50539e-08
-4.08486e-10
-1.4747e-08
-4.22437e-10
-1.4436e-08
-4.28284e-10
-1.41257e-08
-4.27243e-10
-1.38203e-08
-4.20487e-10
-1.35231e-08
-4.09119e-10
-1.32366e-08
-3.94146e-10
-1.29629e-08
-3.7647e-10
-1.27032e-08
-3.56881e-10
-1.24586e-08
-3.36058e-10
-1.22295e-08
-3.14572e-10
-1.2016e-08
-2.92898e-10
-1.1818e-08
-2.71418e-10
-1.16351e-08
-2.50437e-10
-1.14669e-08
-2.30192e-10
-1.13127e-08
-2.10857e-10
-1.11718e-08
-1.92559e-10
-1.10433e-08
-1.75384e-10
-1.09264e-08
-1.59382e-10
-1.08203e-08
-1.44576e-10
-1.0724e-08
-1.30967e-10
-1.06368e-08
-1.18535e-10
-1.05578e-08
-1.07249e-10
-1.04863e-08
-9.70656e-11
-1.04214e-08
-8.79315e-11
-1.03624e-08
-7.97887e-11
-1.03087e-08
-7.25729e-11
-1.02597e-08
-6.6217e-11
-1.02147e-08
-6.06504e-11
-1.01733e-08
-5.57996e-11
-1.0135e-08
-5.15862e-11
-1.00994e-08
-4.79233e-11
-1.00661e-08
-4.47093e-11
-1.00349e-08
-4.18175e-11
-1.00058e-08
-3.90859e-11
-9.97862e-09
-3.63072e-11
-9.95369e-09
-3.32285e-11
-9.93137e-09
-2.95759e-11
-9.91219e-09
-2.51147e-11
-9.89675e-09
-1.97664e-11
-9.88543e-09
-1.37771e-11
-9.87796e-09
-7.91312e-12
-9.87302e-09
-3.79699e-12
-9.86743e-09
-3.89824e-12
-9.85535e-09
-1.17127e-11
-9.82793e-09
-3.18471e-11
-9.77213e-09
-6.96814e-11
-9.67015e-09
-1.3221e-10
-9.49739e-09
-2.29973e-10
-9.21931e-09
-3.79173e-10
-8.77727e-09
-6.13176e-10
-1.07624e-09
-8.09048e-09
2.07113e-10
-5.77697e-10
6.04953e-10
-1.24846e-09
1.02354e-09
-1.52196e-09
1.33343e-09
-1.4745e-09
1.43256e-09
-1.17103e-09
1.23976e-09
-6.66952e-10
6.89832e-10
-7.83444e-12
-2.69429e-10
7.69186e-10
-1.68101e-09
1.63643e-09
-3.58033e-09
2.57274e-09
-5.99731e-09
3.56323e-09
-8.95736e-09
4.59772e-09
-1.24822e-08
5.66946e-09
-1.65902e-08
6.77377e-09
-2.12959e-08
7.90683e-09
-2.66096e-08
9.06449e-09
-3.25361e-08
1.02412e-08
-3.90734e-08
1.14292e-08
-4.62113e-08
1.26178e-08
-5.39296e-08
1.37931e-08
-6.21969e-08
1.49378e-08
-7.09693e-08
1.60316e-08
-8.01897e-08
1.70516e-08
-8.97877e-08
1.79732e-08
-9.96799e-08
1.87706e-08
-1.09771e-07
1.94182e-08
-1.19954e-07
1.98915e-08
-1.30115e-07
2.01681e-08
-1.40132e-07
2.02282e-08
-1.49882e-07
2.00562e-08
-1.59238e-07
1.96404e-08
-1.68078e-07
1.89741e-08
-1.76283e-07
1.80554e-08
-1.8374e-07
1.68873e-08
-1.90347e-07
1.54778e-08
-1.96011e-07
1.38394e-08
-2.00652e-07
1.19888e-08
-2.04202e-07
9.94631e-09
-2.06608e-07
7.73531e-09
-2.07829e-07
5.38169e-09
-2.07838e-07
2.91302e-09
-2.06623e-07
3.5858e-10
-2.04181e-07
-2.25124e-09
-2.00531e-07
-4.88796e-09
-1.95692e-07
-7.52215e-09
-1.89697e-07
-1.01274e-08
-1.82586e-07
-1.26791e-08
-1.74406e-07
-1.51549e-08
-1.65211e-07
-1.75352e-08
-1.55057e-07
-1.98032e-08
-1.44008e-07
-2.1945e-08
-1.32125e-07
-2.39498e-08
-1.19475e-07
-2.58091e-08
-1.06123e-07
-2.75167e-08
-9.21346e-08
-2.90679e-08
-7.75762e-08
-3.04587e-08
-6.25139e-08
-3.16849e-08
-4.70147e-08
-3.27413e-08
-3.1148e-08
-3.36204e-08
-1.49859e-08
-3.4312e-08
1.39447e-09
-3.48021e-08
1.79083e-08
-3.50705e-08
3.44603e-08
-3.50931e-08
5.09459e-08
-3.48477e-08
6.7249e-08
-3.43086e-08
8.32415e-08
-3.34493e-08
9.87826e-08
-3.22446e-08
1.1372e-07
-3.0672e-08
1.2789e-07
-2.87146e-08
1.41122e-07
-2.63623e-08
1.53237e-07
-2.36146e-08
1.64055e-07
-2.04818e-08
1.73397e-07
-1.69871e-08
1.81093e-07
-1.31671e-08
1.86982e-07
-9.07365e-09
1.90928e-07
-4.77351e-09
1.92813e-07
-3.50246e-10
1.92563e-07
4.09706e-09
1.90152e-07
8.4535e-09
1.85608e-07
1.26008e-08
1.7902e-07
1.64186e-08
1.70541e-07
1.97895e-08
1.6039e-07
2.26075e-08
1.48843e-07
2.47861e-08
1.36227e-07
2.62665e-08
1.22904e-07
2.70241e-08
1.09249e-07
2.70723e-08
9.56294e-08
2.64622e-08
8.23831e-08
2.52782e-08
6.98002e-08
2.36294e-08
5.81094e-08
2.1639e-08
4.74722e-08
1.9432e-08
3.79822e-08
1.71258e-08
2.96716e-08
1.48228e-08
2.25191e-08
1.26083e-08
1.64597e-08
1.05498e-08
1.13947e-08
8.69989e-09
7.20106e-09
7.09656e-09
3.74023e-09
5.76356e-09
8.68212e-10
4.70889e-09
-1.55525e-09
3.92369e-09
-3.65774e-09
3.38255e-09
-5.54676e-09
3.04643e-09
-7.30566e-09
2.86823e-09
-8.99261e-09
2.79881e-09
-1.06423e-08
2.79218e-09
-1.22693e-08
2.8093e-09
-1.3873e-08
2.82e-09
-1.54417e-08
2.80327e-09
-1.69572e-08
2.74646e-09
-1.83986e-08
2.64388e-09
-1.97445e-08
2.49531e-09
-2.09758e-08
2.30451e-09
-2.20765e-08
2.07797e-09
-2.30345e-08
1.82382e-09
-2.38426e-08
1.55099e-09
-2.44979e-08
1.2685e-09
-2.50017e-08
9.84928e-10
-2.5359e-08
7.08e-10
-2.5578e-08
4.44329e-10
-2.56695e-08
1.99251e-10
-2.56458e-08
-2.31178e-11
-2.55208e-08
-2.20406e-10
-2.53085e-08
-3.9082e-10
-2.50233e-08
-5.34092e-10
-2.46788e-08
-6.50755e-10
-2.42883e-08
-7.42064e-10
-2.38637e-08
-8.09826e-10
-2.34159e-08
-8.56228e-10
-2.29547e-08
-8.83679e-10
-2.24883e-08
-8.94683e-10
-2.20238e-08
-8.91727e-10
-2.15671e-08
-8.77205e-10
-2.11229e-08
-8.5335e-10
-2.06948e-08
-8.22202e-10
-2.02857e-08
-7.85581e-10
-1.98975e-08
-7.4508e-10
-1.95315e-08
-7.02068e-10
-1.91883e-08
-6.577e-10
-1.88683e-08
-6.12934e-10
-1.85712e-08
-5.68547e-10
-1.82965e-08
-5.2516e-10
-1.80434e-08
-4.83253e-10
-1.78111e-08
-4.4319e-10
-1.75984e-08
-4.05233e-10
-1.74042e-08
-3.6956e-10
-1.72273e-08
-3.36282e-10
-1.70664e-08
-3.05451e-10
-1.69203e-08
-2.77072e-10
-1.67878e-08
-2.51114e-10
-1.66675e-08
-2.27515e-10
-1.65584e-08
-2.06191e-10
-1.64593e-08
-1.87039e-10
-1.63691e-08
-1.69942e-10
-1.62869e-08
-1.5477e-10
-1.62117e-08
-1.4139e-10
-1.61427e-08
-1.29658e-10
-1.60791e-08
-1.19425e-10
-1.60202e-08
-1.10532e-10
-1.59653e-08
-1.02803e-10
-1.5914e-08
-9.60314e-11
-1.58658e-08
-8.99654e-11
-1.58206e-08
-8.42852e-11
-1.57783e-08
-7.85888e-11
-1.57392e-08
-7.23981e-11
-1.57035e-08
-6.52118e-11
-1.5672e-08
-5.66368e-11
-1.56451e-08
-4.66242e-11
-1.56231e-08
-3.58163e-11
-1.5605e-08
-2.59766e-11
-1.55884e-08
-2.04401e-11
-1.55679e-08
-2.43985e-11
-1.55346e-08
-4.5053e-11
-1.54749e-08
-9.15004e-11
-1.537e-08
-1.74549e-10
-1.5195e-08
-3.07228e-10
-1.49181e-08
-5.06891e-10
-1.44979e-08
-7.99394e-10
-1.38819e-08
-1.22914e-09
-1.88507e-09
-1.30731e-08
7.00395e-11
-6.47736e-10
9.92533e-11
-1.27767e-09
-5.36097e-11
-1.3691e-09
-4.95925e-10
-1.03219e-09
-1.31164e-09
-3.55323e-10
-2.56843e-09
5.89843e-10
-4.32256e-09
1.74629e-09
-6.62285e-09
3.06947e-09
-9.51172e-09
4.5253e-09
-1.30271e-08
6.08813e-09
-1.72025e-08
7.73867e-09
-2.20669e-08
9.46207e-09
-2.76435e-08
1.12461e-08
-3.39492e-08
1.30794e-08
-4.09925e-08
1.49501e-08
-4.87723e-08
1.68443e-08
-5.72761e-08
1.8745e-08
-6.64781e-08
2.06312e-08
-7.63378e-08
2.24775e-08
-8.67989e-08
2.42542e-08
-9.77889e-08
2.59278e-08
-1.09219e-07
2.74618e-08
-1.20986e-07
2.88183e-08
-1.32972e-07
2.9959e-08
-1.45048e-07
3.08473e-08
-1.5708e-07
3.14495e-08
-1.68924e-07
3.17362e-08
-1.8044e-07
3.16836e-08
-1.91486e-07
3.12741e-08
-2.01927e-07
3.04972e-08
-2.11636e-07
2.93493e-08
-2.20495e-07
2.78338e-08
-2.28401e-07
2.59607e-08
-2.3526e-07
2.37465e-08
-2.40995e-07
2.12128e-08
-2.45542e-07
1.83864e-08
-2.48851e-07
1.52982e-08
-2.50887e-07
1.19821e-08
-2.51627e-07
8.47492e-09
-2.5106e-07
4.81502e-09
-2.49189e-07
1.04244e-09
-2.46029e-07
-2.80221e-09
-2.416e-07
-6.68004e-09
-2.35934e-07
-1.05535e-08
-2.2907e-07
-1.43867e-08
-2.21051e-07
-1.81461e-08
-2.11929e-07
-2.18007e-08
-2.01761e-07
-2.53232e-08
-1.90607e-07
-2.86898e-08
-1.78529e-07
-3.18809e-08
-1.65593e-07
-3.48807e-08
-1.51865e-07
-3.76777e-08
-1.37411e-07
-4.02638e-08
-1.22293e-07
-4.26338e-08
-1.06577e-07
-4.47845e-08
-9.03219e-08
-4.67136e-08
-7.35884e-08
-4.84184e-08
-5.64356e-08
-4.98941e-08
-3.89231e-08
-5.11329e-08
-2.11126e-08
-5.21224e-08
-3.07035e-09
-5.28444e-08
1.51338e-08
-5.32747e-08
3.34203e-08
-5.33797e-08
5.16961e-08
-5.31235e-08
6.98572e-08
-5.24697e-08
8.77866e-08
-5.13787e-08
1.05354e-07
-4.98119e-08
1.22416e-07
-4.77336e-08
1.38815e-07
-4.5114e-08
1.54385e-07
-4.19322e-08
1.68949e-07
-3.81784e-08
1.82323e-07
-3.3856e-08
1.9432e-07
-2.89841e-08
2.04752e-07
-2.35991e-08
2.13434e-07
-1.77558e-08
2.2019e-07
-1.15292e-08
2.24855e-07
-5.01505e-09
2.27284e-07
1.6682e-09
2.2736e-07
8.37747e-09
2.25013e-07
1.49474e-08
2.2023e-07
2.1202e-08
2.13061e-07
2.69584e-08
2.03633e-07
3.20354e-08
1.92153e-07
3.62658e-08
1.7891e-07
3.95099e-08
1.64264e-07
4.16699e-08
1.48634e-07
4.27021e-08
1.32472e-07
4.26239e-08
1.16235e-07
4.15155e-08
1.00352e-07
3.95121e-08
8.52004e-08
3.6791e-08
7.10802e-08
3.35522e-08
5.82063e-08
2.99997e-08
4.6704e-08
2.63252e-08
3.66153e-08
2.26969e-08
2.79097e-08
1.92554e-08
2.04978e-08
1.61118e-08
1.42459e-08
1.33484e-08
8.99146e-09
1.1018e-08