/*--------------------------------*- C++ -*----------------------------------*\
  =========                 |
  \\      /  F ield         | OpenFOAM: The Open Source CFD Toolbox
   \\    /   O peration     | Website:  https://openfoam.org
    \\  /    A nd           | Version:  8
     \\/     M anipulation  |
\*---------------------------------------------------------------------------*/
FoamFile
{
    version     2.0;
    format      ascii;
    class       volVectorField;
    location    "0.54";
    object      U;
}
// * * * * * * * * * * * * * * * * * * * * * * * * * * * * * * * * * * * * * //

dimensions      [0 1 -1 0 0 0 0];

internalField   nonuniform List<vector> 
12225
(
(-1.08519e-05 1.53632e-06 0)
(-1.44354e-05 -3.31153e-07 0)
(1.73586e-05 -1.50659e-06 0)
(7.84715e-05 -2.65384e-06 0)
(0.000165411 -3.69646e-06 0)
(0.000274639 -4.72672e-06 0)
(0.000404162 -5.77977e-06 0)
(0.000552669 -6.89927e-06 0)
(0.000719529 -8.14043e-06 0)
(0.000905014 -9.61034e-06 0)
(0.00111105 -1.15176e-05 0)
(0.00134236 -1.42506e-05 0)
(0.00160802 -1.85274e-05 0)
(0.00192238 -2.55544e-05 0)
(0.00230348 -3.59337e-05 0)
(0.00276818 -4.17e-05 0)
(0.00325893 -7.53985e-05 0)
(0.000762591 0.00189669 0)
(-2.34837e-05 5.71266e-06 0)
(-2.09705e-05 -7.02082e-06 0)
(7.90655e-05 -2.20605e-05 0)
(0.000262922 -3.65078e-05 0)
(0.000520991 -5.01726e-05 0)
(0.00084339 -6.35167e-05 0)
(0.0012239 -7.69459e-05 0)
(0.00165798 -9.08002e-05 0)
(0.00214258 -0.000105508 0)
(0.00267657 -0.000121854 0)
(0.00326194 -0.000141295 0)
(0.00390547 -0.000166224 0)
(0.0046192 -0.000199886 0)
(0.00541469 -0.000244501 0)
(0.00628049 -0.000290092 0)
(0.00709321 -0.000254785 0)
(0.00742788 0.000248109 0)
(0.00259024 0.00454094 0)
(-2.91667e-05 1.08493e-05 0)
(-6.7611e-06 -2.42518e-05 0)
(0.000168965 -6.7811e-05 0)
(0.000479741 -0.00010998 0)
(0.000910679 -0.000150162 0)
(0.00144605 -0.000189323 0)
(0.00207502 -0.000228461 0)
(0.00278901 -0.000268346 0)
(0.00358113 -0.000309881 0)
(0.00444633 -0.00035467 0)
(0.00538233 -0.000405516 0)
(0.00638981 -0.000466294 0)
(0.00746855 -0.000539683 0)
(0.00859959 -0.000617654 0)
(0.00969416 -0.000645036 0)
(0.0104284 -0.000381735 0)
(0.0100455 0.00109359 0)
(0.00435758 0.00772171 0)
(-2.93899e-05 1.41564e-05 0)
(2.65247e-05 -5.63687e-05 0)
(0.000285729 -0.000144869 0)
(0.000727038 -0.000231145 0)
(0.00133106 -0.000313707 0)
(0.00207668 -0.000394015 0)
(0.00294812 -0.000473753 0)
(0.0039318 -0.000554074 0)
(0.00501539 -0.000636162 0)
(0.00618715 -0.000722033 0)
(0.0074357 -0.000814881 0)
(0.00874751 -0.00091755 0)
(0.010097 -0.00102547 0)
(0.0114162 -0.00110385 0)
(0.0125244 -0.0010169 0)
(0.0129442 -0.000314099 0)
(0.0118089 0.00240152 0)
(0.00613017 0.0110615 0)
(-2.54376e-05 1.20407e-05 0)
(7.67057e-05 -0.000108115 0)
(0.000426845 -0.00025837 0)
(0.00100125 -0.000405755 0)
(0.00177655 -0.000547209 0)
(0.00272668 -0.000684499 0)
(0.00383056 -0.000819852 0)
(0.00506873 -0.000954477 0)
(0.00642167 -0.00108919 0)
(0.00786818 -0.00122521 0)
(0.0093833 -0.00136386 0)
(0.0109326 -0.00150231 0)
(0.0124567 -0.00161945 0)
(0.0138335 -0.00163668 0)
(0.014805 -0.00131475 0)
(0.014831 1.97876e-06 0)
(0.0131321 0.00398811 0)
(0.00792044 0.0141816 0)
(-1.8406e-05 9.64212e-07 0)
(0.000141002 -0.000184899 0)
(0.000588407 -0.000414206 0)
(0.00129679 -0.000640213 0)
(0.00223895 -0.000857541 0)
(0.00338426 -0.00106791 0)
(0.00470604 -0.00127369 0)
(0.0061781 -0.00147549 0)
(0.00777226 -0.00167257 0)
(0.00945541 -0.0018634 0)
(0.0111856 -0.00204397 0)
(0.0129036 -0.00219991 0)
(0.014514 -0.00228404 0)
(0.0158477 -0.00216185 0)
(0.0166028 -0.00148763 0)
(0.0162638 0.0005501 0)
(0.014252 0.00569781 0)
(0.00972538 0.0169371 0)
(-9.25253e-06 -2.25522e-05 0)
(0.00021606 -0.000292484 0)
(0.000765101 -0.00061873 0)
(0.00160596 -0.00094119 0)
(0.00270737 -0.00125155 0)
(0.00403442 -0.00155099 0)
(0.00555468 -0.00184138 0)
(0.00723466 -0.00212168 0)
(0.00903637 -0.00238798 0)
(0.0109133 -0.0026333 0)
(0.0128048 -0.00284422 0)
(0.0146264 -0.00298881 0)
(0.0162508 -0.00298656 0)
(0.017478 -0.00264326 0)
(0.0180008 -0.00152248 0)
(0.0173911 0.00127369 0)
(0.0153056 0.00740944 0)
(0.0115476 0.0192859 0)
(1.16805e-06 -6.18542e-05 0)
(0.000297967 -0.000436679 0)
(0.000950134 -0.000878201 0)
(0.00191876 -0.00131486 0)
(0.00316797 -0.00173504 0)
(0.00465877 -0.00213886 0)
(0.00635304 -0.0025268 0)
(0.00820975 -0.00289483 0)
(0.0101807 -0.00323375 0)
(0.0122057 -0.00352814 0)
(0.014206 -0.00375099 0)
(0.0160748 -0.00384792 0)
(0.0176622 -0.0037018 0)
(0.0187577 -0.00306393 0)
(0.0190824 -0.00143578 0)
(0.0183275 0.00209684 0)
(0.0163661 0.00902121 0)
(0.0133882 0.0212055 0)
(1.20832e-05 -0.000119957 0)
(0.000382296 -0.00062291 0)
(0.00113526 -0.00119823 0)
(0.00222291 -0.00176624 0)
(0.00360392 -0.00231208 0)
(0.00523551 -0.00283425 0)
(0.00707415 -0.0033308 0)
(0.00907165 -0.00379315 0)
(0.0111702 -0.00420455 0)
(0.013297 -0.00453807 0)
(0.0153579 -0.00474954 0)
(0.01723 -0.0047594 0)
(0.0187531 -0.00441527 0)
(0.0197252 -0.0034266 0)
(0.0199195 -0.00126696 0)
(0.0191508 0.00293528 0)
(0.0174618 0.0104456 0)
(0.0152394 0.0226782 0)
(2.27789e-05 -0.000199296 0)
(0.000464176 -0.000855669 0)
(0.00131086 -0.00158315 0)
(0.0025038 -0.0022985 0)
(0.00399543 -0.00298419 0)
(0.00573949 -0.00363669 0)
(0.00768778 -0.00425056 0)
(0.00978596 -0.00481103 0)
(0.0119682 -0.00529158 0)
(0.0141518 -0.00565114 0)
(0.016232 -0.0058261 0)
(0.0180781 -0.00571154 0)
(0.0195315 -0.00512555 0)
(0.0204147 -0.00375295 0)
(0.0205632 -0.00107265 0)
(0.0199016 0.00370253 0)
(0.0185876 0.0116073 0)
(0.0170814 0.0236884 0)
(3.25818e-05 -0.000301447 0)
(0.000538397 -0.00113766 0)
(0.00146613 -0.00203499 0)
(0.00274477 -0.00291188 0)
(0.00431999 -0.00374927 0)
(0.00614256 -0.00454147 0)
(0.0081608 -0.00527863 0)
(0.010316 -0.00593833 0)
(0.012537 -0.00648242 0)
(0.0147353 -0.00685392 0)
(0.0168016 -0.00696908 0)
(0.0186059 -0.00670006 0)
(0.0200023 -0.00584423 0)
(0.020847 -0.00408019 0)
(0.0210378 -0.000919869 0)
(0.0205848 0.00431509 0)
(0.0197115 0.0124421 0)
(0.0188778 0.0242202 0)
(4.03424e-05 -0.000416727 0)
(0.000594735 -0.00144146 0)
(0.00157946 -0.00250946 0)
(0.00291285 -0.00354515 0)
(0.00453424 -0.00452972 0)
(0.0063925 -0.00545583 0)
(0.00843434 -0.00630901 0)
(0.0105994 -0.00705886 0)
(0.0128147 -0.00765554 0)
(0.0149911 -0.00802685 0)
(0.0170213 -0.00807151 0)
(0.018783 -0.00764474 0)
(0.0201494 -0.00653405 0)
(0.0210107 -0.00442759 0)
(0.0213142 -0.000885273 0)
(0.0211242 0.00466352 0)
(0.0206884 0.0128597 0)
(0.0204322 0.0242584 0)
(4.70614e-05 -0.000548482 0)
(0.000637069 -0.00177907 0)
(0.00165857 -0.00302677 0)
(0.00302095 -0.00422641 0)
(0.00465745 -0.00536105 0)
(0.00651597 -0.00642224 0)
(0.00854339 -0.00739089 0)
(0.01068 -0.0082283 0)
(0.0128545 -0.00887275 0)
(0.0149809 -0.00923732 0)
(0.016959 -0.00920518 0)
(0.0186799 -0.00861915 0)
(0.0200388 -0.00726469 0)
(0.020959 -0.00484975 0)
(0.0214279 -0.000990865 0)
(0.021543 0.00477637 0)
(0.0215523 0.0129401 0)
(0.0218327 0.0238955 0)
(5.29507e-05 -0.000718423 0)
(0.000662861 -0.00220673 0)
(0.00169417 -0.00366945 0)
(0.0030496 -0.00506076 0)
(0.0046567 -0.00636833 0)
(0.00646403 -0.00758351 0)
(0.00842125 -0.00868235 0)
(0.010473 -0.00961692 0)
(0.0125541 -0.0103125 0)
(0.014588 -0.0106668 0)
(0.0164881 -0.0105489 0)
(0.0181654 -0.00979343 0)
(0.0195425 -0.00819248 0)
(0.0205759 -0.00548624 0)
(0.021285 -0.00136066 0)
(0.0217838 0.00453639 0)
(0.0223002 0.0125492 0)
(0.0231506 0.0229366 0)
(5.61537e-05 -0.000928969 0)
(0.00065573 -0.00272953 0)
(0.00164773 -0.00444094 0)
(0.00293324 -0.00604762 0)
(0.00443732 -0.00754637 0)
(0.00611205 -0.0089303 0)
(0.0079141 -0.0101715 0)
(0.0097976 -0.0112132 0)
(0.0117101 -0.011968 0)
(0.0135914 -0.0123197 0)
(0.0153761 -0.0121262 0)
(0.017001 -0.0112203 0)
(0.0184186 -0.00940983 0)
(0.0196142 -0.00647689 0)
(0.0206278 -0.00218334 0)
(0.0215716 0.00371377 0)
(0.0226377 0.0114318 0)
(0.0240754 0.0211177 0)
(5.3988e-05 -0.00117319 0)
(0.000592519 -0.00332884 0)
(0.00146502 -0.00531087 0)
(0.00257983 -0.00714389 0)
(0.00386699 -0.00884026 0)
(0.00528703 -0.0103985 0)
(0.00680925 -0.0117898 0)
(0.00840392 -0.0129509 0)
(0.0100386 -0.0137845 0)
(0.0116769 -0.0141642 0)
(0.0132811 -0.0139421 0)
(0.014818 -0.0129554 0)
(0.0162687 -0.0110337 0)
(0.017641 -0.00800533 0)
(0.0189822 -0.00370494 0)
(0.0203874 0.00201431 0)
(0.0220035 0.00926552 0)
(0.0240136 0.0181083 0)
(4.30527e-05 -0.0014233 0)
(0.000443612 -0.00393582 0)
(0.00107733 -0.00617811 0)
(0.0018733 -0.00822026 0)
(0.00277906 -0.010097 0)
(0.00377088 -0.0118179 0)
(0.00483692 -0.0133587 0)
(0.00597008 -0.0146553 0)
(0.00716439 -0.0156063 0)
(0.00841351 -0.0160812 0)
(0.00971155 -0.0159318 0)
(0.0110565 -0.0150045 0)
(0.0124555 -0.013152 0)
(0.0139317 -0.0102438 0)
(0.0155303 -0.00617438 0)
(0.0173219 -0.000870485 0)
(0.0194032 0.00570319 0)
(0.0219004 0.0135423 0)
(1.93494e-05 -0.00161203 0)
(0.000177957 -0.00438821 0)
(0.000415439 -0.00681137 0)
(0.000698898 -0.00899093 0)
(0.00100949 -0.010987 0)
(0.00134712 -0.0128266 0)
(0.00172337 -0.0144975 0)
(0.0021573 -0.0159437 0)
(0.00267234 -0.0170686 0)
(0.00329421 -0.0177452 0)
(0.0040498 -0.0178305 0)
(0.00496743 -0.0171815 0)
(0.00607805 -0.0156691 0)
(0.00741704 -0.0131908 0)
(0.00902574 -0.00967844 0)
(0.0109529 -0.00510316 0)
(0.0132547 0.000524696 0)
(0.0160068 0.00715798 0)
(-2.16989e-05 -0.0016087 0)
(-0.000214946 -0.00437509 0)
(-0.000535328 -0.00677168 0)
(-0.000961153 -0.00891731 0)
(-0.00146498 -0.0108891 0)
(-0.00202001 -0.0127338 0)
(-0.00259276 -0.0144591 0)
(-0.0031416 -0.0160275 0)
(-0.0036179 -0.0173588 0)
(-0.00396814 -0.0183404 0)
(-0.00413621 -0.0188419 0)
(-0.00406573 -0.0187319 0)
(-0.00370227 -0.017893 0)
(-0.00299525 -0.0162343 0)
(-0.00189965 -0.0137 0)
(-0.000376305 -0.0102724 0)
(0.00160961 -0.00597179 0)
(0.00410186 -0.00085038 0)
(-5.50222e-05 -0.00133325 0)
(-0.000546357 -0.00370159 0)
(-0.00133969 -0.00578853 0)
(-0.0023694 -0.00767114 0)
(-0.00357525 -0.00941724 0)
(-0.00491658 -0.0110814 0)
(-0.00635217 -0.0126879 0)
(-0.00783354 -0.0142206 0)
(-0.0093034 -0.0156226 0)
(-0.0106961 -0.0168038 0)
(-0.0119397 -0.0176541 0)
(-0.0129591 -0.0180573 0)
(-0.01368 -0.0179053 0)
(-0.0140333 -0.0171108 0)
(-0.0139593 -0.0156145 0)
(-0.0134093 -0.0133905 0)
(-0.0123443 -0.0104464 0)
(-0.0107236 -0.00682082 0)
(-6.76758e-05 -0.000992224 0)
(-0.000702721 -0.0028774 0)
(-0.00173544 -0.00459189 0)
(-0.00308047 -0.00615356 0)
(-0.00466496 -0.00761063 0)
(-0.00644567 -0.00901635 0)
(-0.00838336 -0.0104037 0)
(-0.0104339 -0.0117724 0)
(-0.0125445 -0.0130861 0)
(-0.0146519 -0.0142778 0)
(-0.0166835 -0.0152597 0)
(-0.0185594 -0.015935 0)
(-0.0201967 -0.0162095 0)
(-0.0215151 -0.0160026 0)
(-0.0224415 -0.0152548 0)
(-0.0229146 -0.0139321 0)
(-0.0228835 -0.0120283 0)
(-0.0223016 -0.00956474 0)
(-6.44361e-05 -0.000656807 0)
(-0.000721566 -0.00205771 0)
(-0.00181582 -0.00338978 0)
(-0.00325951 -0.00461451 0)
(-0.00497949 -0.00575978 0)
(-0.00693468 -0.00687293 0)
(-0.0090915 -0.00798982 0)
(-0.0114148 -0.00912037 0)
(-0.0138627 -0.0102449 0)
(-0.0163824 -0.0113175 0)
(-0.0189096 -0.0122727 0)
(-0.0213694 -0.0130349 0)
(-0.0236803 -0.0135275 0)
(-0.0257585 -0.0136813 0)
(-0.0275241 -0.013441 0)
(-0.0289057 -0.0127697 0)
(-0.0298417 -0.0116512 0)
(-0.0302769 -0.0100917 0)
(-4.98434e-05 -0.00038153 0)
(-0.000639454 -0.00136408 0)
(-0.0016641 -0.00234992 0)
(-0.00304471 -0.00326186 0)
(-0.00471406 -0.00411268 0)
(-0.00663416 -0.00494194 0)
(-0.00877723 -0.00578367 0)
(-0.0111178 -0.00665262 0)
(-0.0136263 -0.00754053 0)
(-0.0162635 -0.00841802 0)
(-0.0189781 -0.00923956 0)
(-0.0217066 -0.00994995 0)
(-0.0243759 -0.010491 0)
(-0.0269069 -0.0108078 0)
(-0.0292203 -0.0108539 0)
(-0.0312411 -0.0105947 0)
(-0.0329021 -0.0100098 0)
(-0.0341425 -0.00909573 0)
(-2.91623e-05 -0.000184823 0)
(-0.000500316 -0.000838654 0)
(-0.00137792 -0.00153401 0)
(-0.00259586 -0.00217776 0)
(-0.00409439 -0.00277432 0)
(-0.00583798 -0.00335514 0)
(-0.00780363 -0.00394939 0)
(-0.00997421 -0.00457241 0)
(-0.0123312 -0.00522255 0)
(-0.0148485 -0.00588235 0)
(-0.0174888 -0.006522 0)
(-0.0202024 -0.0071037 0)
(-0.0229286 -0.00758624 0)
(-0.0255986 -0.00792933 0)
(-0.0281399 -0.00809725 0)
(-0.0304808 -0.0080615 0)
(-0.0325546 -0.00780247 0)
(-0.0343001 -0.00731195 0)
(-7.12498e-06 -6.25515e-05 0)
(-0.000342981 -0.000474934 0)
(-0.00104166 -0.000939179 0)
(-0.00204937 -0.00136662 0)
(-0.00331322 -0.00175851 0)
(-0.00479967 -0.00213856 0)
(-0.00648953 -0.00252957 0)
(-0.00837209 -0.00294474 0)
(-0.0104376 -0.00338546 0)
(-0.0126709 -0.00384211 0)
(-0.0150472 -0.00429638 0)
(-0.0175303 -0.00472406 0)
(-0.020073 -0.00509798 0)
(-0.0226193 -0.00539083 0)
(-0.0251077 -0.00557749 0)
(-0.0274747 -0.00563693 0)
(-0.0296589 -0.00555323 0)
(-0.0316044 -0.00531723 0)
(1.25096e-05 4.6075e-07 0)
(-0.000196379 -0.000243501 0)
(-0.000716073 -0.000531909 0)
(-0.00150222 -0.000794308 0)
(-0.00250794 -0.00103157 0)
(-0.00370215 -0.00126033 0)
(-0.00506905 -0.00149666 0)
(-0.00660258 -0.00175038 0)
(-0.00829925 -0.00202365 0)
(-0.010152 -0.00231164 0)
(-0.0121459 -0.00260392 0)
(-0.0142566 -0.00288617 0)
(-0.0164496 -0.00314194 0)
(-0.0186822 -0.00335427 0)
(-0.0209052 -0.00350717 0)
(-0.0230665 -0.0035867 0)
(-0.0251137 -0.00358171 0)
(-0.0269993 -0.00348439 0)
(2.68454e-05 2.26842e-05 0)
(-7.92209e-05 -0.000108976 0)
(-0.000438313 -0.000269961 0)
(-0.00101286 -0.000413862 0)
(-0.00176228 -0.000541871 0)
(-0.00265928 -0.000664438 0)
(-0.0036914 -0.000791515 0)
(-0.00485585 -0.00092932 0)
(-0.00615299 -0.00107968 0)
(-0.00758105 -0.00124044 0)
(-0.00913247 -0.00140627 0)
(-0.010792 -0.00156958 0)
(-0.0125363 -0.00172149 0)
(-0.0143348 -0.00185267 0)
(-0.0161512 -0.0019541 0)
(-0.0179455 -0.00201771 0)
(-0.0196765 -0.0020368 0)
(-0.021307 -0.00200594 0)
(3.34862e-05 2.16293e-05 0)
(-1.65422e-06 -3.91741e-05 0)
(-0.000226439 -0.000114303 0)
(-0.000609483 -0.000179937 0)
(-0.00111812 -0.000237225 0)
(-0.00173067 -0.000291644 0)
(-0.00243821 -0.000348266 0)
(-0.00323997 -0.000410285 0)
(-0.00413819 -0.00047879 0)
(-0.00513396 -0.00055299 0)
(-0.00622438 -0.000630603 0)
(-0.00740107 -0.000708283 0)
(-0.0086497 -0.000782034 0)
(-0.00995041 -0.000847594 0)
(-0.0112788 -0.000900765 0)
(-0.0126073 -0.000937697 0)
(-0.0139066 -0.000955102 0)
(-0.0151503 -0.000949824 0)
(3.01953e-05 1.19922e-05 0)
(3.25924e-05 -8.83328e-06 0)
(-8.50201e-05 -3.36014e-05 0)
(-0.00029954 -5.45646e-05 0)
(-0.000588899 -7.24007e-05 0)
(-0.000938886 -8.91705e-05 0)
(-0.00134419 -0.000106696 0)
(-0.00180505 -0.000126122 0)
(-0.00232388 -0.000147878 0)
(-0.00290259 -0.000171771 0)
(-0.00354078 -0.000197119 0)
(-0.00423476 -0.000222884 0)
(-0.00497721 -0.00024781 0)
(-0.00575736 -0.000270536 0)
(-0.00656153 -0.000289694 0)
(-0.00737378 -0.000303994 0)
(-0.00817672 -0.000312278 0)
(-0.00895475 -0.000313077 0)
(1.50068e-05 3.14799e-06 0)
(2.43278e-05 -1.13184e-08 0)
(-9.99688e-06 -2.04421e-06 0)
(-7.79334e-05 -3.63068e-06 0)
(-0.000170991 -4.88109e-06 0)
(-0.00028389 -6.02974e-06 0)
(-0.000414862 -7.24632e-06 0)
(-0.000564258 -8.636e-06 0)
(-0.000733284 -1.0242e-05 0)
(-0.00092303 -1.20571e-05 0)
(-0.00113383 -1.40348e-05 0)
(-0.00136488 -1.61012e-05 0)
(-0.00161414 -1.81633e-05 0)
(-0.00187834 -2.01183e-05 0)
(-0.00215316 -2.18606e-05 0)
(-0.00243341 -2.32921e-05 0)
(-0.00271317 -2.42686e-05 0)
(-0.00298711 -2.45483e-05 0)
(3.17366e-05 -7.31717e-05 2.6207e-23)
(0.00023782 -0.000178546 -3.42448e-23)
(0.000579274 -0.000243865 0)
(0.00100382 -0.00027377 0)
(0.00144588 -0.000278188 0)
(0.00185864 -0.000265045 3.04835e-23)
(0.00220984 -0.000240703 0)
(0.00247706 -0.000210178 0)
(0.00264514 -0.000177111 0)
(0.00270417 -0.00014383 0)
(0.00264843 -0.000111476 -1.13785e-23)
(0.00247458 -8.07748e-05 0)
(0.00217991 -5.17319e-05 0)
(0.00176216 -2.38681e-05 0)
(0.00121875 3.53908e-06 0)
(0.000546421 3.13257e-05 2.0041e-23)
(-0.00025897 6.03582e-05 0)
(-0.00120233 9.14728e-05 0)
(-0.00228901 0.00012542 0)
(-0.00352447 0.000162806 0)
(-0.00491376 0.000204049 0)
(-0.00646099 0.000249359 0)
(-0.00816874 0.000298722 0)
(-0.0100375 0.000351901 8.92274e-23)
(-0.0120652 0.000408424 -9.84228e-23)
(-0.0142465 0.000467589 1.07368e-22)
(-0.0165727 0.000528466 1.15897e-22)
(-0.0190311 0.000589901 0)
(-0.0216052 0.00065054 0)
(-0.0242741 0.000708844 -1.37036e-22)
(-0.027013 0.000763128 -1.41889e-22)
(-0.0297931 0.000811606 0)
(-0.0325819 0.000852447 0)
(-0.0353439 0.000883843 -1.46759e-22)
(-0.0380409 0.000904085 0)
(-0.0406332 0.000911636 0)
(-0.0430795 0.000905218 1.32864e-22)
(-0.0453389 0.00088388 0)
(-0.0473709 0.000847068 1.11188e-22)
(-0.0491366 0.000794674 1.92823e-22)
(-0.0505999 0.000727043 0)
(-0.0517279 0.000644874 0)
(-0.0524923 0.000549157 0)
(-0.0528692 0.000441077 0)
(-0.052838 0.00032428 0)
(-0.0523844 0.000199351 -8.66029e-23)
(-0.0515024 6.86209e-05 -1.46654e-22)
(-0.05019 -6.51197e-05 -2.08981e-22)
(-0.0484507 -0.000199377 0)
(-0.046293 -0.000331864 3.37368e-22)
(-0.0437303 -0.000460489 0)
(-0.0407801 -0.000583402 -4.6507e-22)
(-0.0374631 -0.000699021 -5.26401e-22)
(-0.0338034 -0.000806031 0)
(-0.0298273 -0.000903359 0)
(-0.0255633 -0.000990119 0)
(-0.0210419 -0.00106554 -7.33048e-22)
(-0.0162954 -0.00112892 0)
(-0.0113587 -0.00117944 0)
(-0.00626922 -0.00121594 0)
(-0.00106818 -0.00123659 0)
(0.0042014 -0.00123968 0)
(0.0094929 -0.00122444 0)
(0.0147529 -0.00119072 0)
(0.019923 -0.00113813 0)
(0.0249412 -0.00106617 6.93719e-22)
(0.0297417 -0.000974745 0)
(0.0342554 -0.000864326 0)
(0.038412 -0.00073613 -5.09462e-22)
(0.0421413 -0.000592201 -4.36695e-22)
(0.0453764 -0.000435456 0)
(0.0480557 -0.000269647 2.81588e-22)
(0.050126 -9.92516e-05 -2.0206e-22)
(0.0515457 7.06254e-05 0)
(0.0522876 0.000234307 4.63331e-23)
(0.0523397 0.000386116 0)
(0.0517106 0.00052191 0)
(0.0504291 0.000637084 1.58178e-22)
(0.048541 0.000728324 0)
(0.0461104 0.00079356 -2.62418e-22)
(0.0432172 0.000831979 0)
(0.039954 0.000844156 3.35632e-22)
(0.0364219 0.000832017 3.60475e-22)
(0.0327257 0.000798635 3.7792e-22)
(0.0289687 0.000747933 7.77143e-22)
(0.0252478 0.000684334 -7.86391e-22)
(0.0216493 0.000612398 0)
(0.0182452 0.000536467 0)
(0.015091 0.000460366 0)
(0.0122252 0.00038718 -7.38646e-22)
(0.00966969 0.00031913 -7.14255e-22)
(0.00743189 0.000257549 6.87831e-22)
(0.00550709 0.000202978 0)
(0.0038815 0.000155363 -6.33005e-22)
(0.00253474 0.000114313 -6.06131e-22)
(0.00144176 7.93701e-05 -5.80353e-22)
(0.00057402 5.02085e-05 0)
(-9.9875e-05 2.67041e-05 0)
(-0.00061355 8.87697e-06 0)
(-0.00100186 -3.28933e-06 -4.93682e-22)
(-0.00129935 -1.00446e-05 0)
(-0.00153832 -1.19711e-05 0)
(-0.00174689 -9.9639e-06 4.51309e-22)
(-0.00194747 -5.11391e-06 0)
(-0.00215604 1.44301e-06 0)
(-0.00238219 8.66702e-06 4.25671e-22)
(-0.00262983 1.57128e-05 0)
(-0.0028983 2.19678e-05 0)
(-0.00318361 2.7043e-05 -4.09234e-22)
(-0.00347967 3.07367e-05 -4.04548e-22)
(-0.00377923 3.29908e-05 0)
(-0.00407475 3.38492e-05 3.95172e-22)
(-0.00435896 3.34258e-05 0)
(-0.00462531 3.18804e-05 -3.84952e-22)
(-0.00486825 2.9401e-05 0)
(-0.00508337 2.61902e-05 -3.73356e-22)
(-0.00526753 2.24543e-05 -3.67005e-22)
(-0.00541883 1.83938e-05 0)
(-0.00553656 1.41945e-05 0)
(-0.00562109 1.00185e-05 0)
(-0.0056737 5.98736e-06 0)
(-0.0056966 2.21891e-06 0)
(-0.00569229 -9.99289e-07 0)
(-0.00566375 -3.8994e-06 0)
(-0.00561443 -6.37505e-06 -3.08488e-22)
(-0.00554768 -8.38992e-06 3.01126e-22)
(-0.00546681 -9.95746e-06 0)
(-0.00537503 -1.11058e-05 0)
(-0.00527529 -1.18725e-05 0)
(-0.00517028 -1.23015e-05 0)
(-0.00506239 -1.24397e-05 5.35026e-22)
(-0.00495368 -1.23345e-05 0)
(-0.00484587 -1.20318e-05 -5.11774e-22)
(-0.0047404 -1.15742e-05 5.00948e-22)
(-0.00463839 -1.10003e-05 0)
(-0.00454073 -1.0344e-05 0)
(-0.00444805 -9.63454e-06 0)
(-0.00436079 -8.89628e-06 -4.62457e-22)
(-0.00427922 -8.14928e-06 -4.53886e-22)
(-0.00420347 -7.40952e-06 0)
(-0.00413354 -6.68937e-06 -4.37767e-22)
(-0.00406933 -5.99812e-06 -4.30152e-22)
(-0.00401069 -5.34238e-06 4.2279e-22)
(-0.00395739 -4.72663e-06 0)
(-0.00390918 -4.15354e-06 0)
(-0.00386576 -3.6244e-06 4.0193e-22)
(-0.00382683 -3.13937e-06 0)
(-0.00379206 -2.69779e-06 0)
(-0.00376113 -2.29831e-06 0)
(-0.00373373 -1.93914e-06 0)
(-0.00370955 -1.61813e-06 -3.69816e-22)
(-0.00368827 -1.33288e-06 -3.63623e-22)
(-0.00366962 -1.08084e-06 0)
(-0.00365331 -8.59406e-07 -3.5136e-22)
(-0.00363909 -6.65919e-07 0)
(-0.00362673 -4.9774e-07 0)
(-0.00361599 -3.52245e-07 -3.33141e-22)
(-0.00360668 -2.26837e-07 0)
(-0.00359862 -1.18871e-07 -3.21036e-22)
(-0.00359164 -2.55368e-08 0)
(-0.00358562 5.63553e-08 0)
(-0.00358046 1.30542e-07 -3.02861e-22)
(-0.00357609 2.01705e-07 0)
(-0.00357251 2.76374e-07 -2.907e-22)
(-0.00356979 3.62808e-07 0)
(-0.00356807 4.70214e-07 0)
(-0.00356761 6.06606e-07 0)
(-0.00356872 7.73465e-07 2.66117e-22)
(-0.00357173 9.5077e-07 0)
(-0.00357689 1.09844e-06 -2.53507e-22)
(-0.00358414 1.32273e-06 0)
(-0.00359278 1.52466e-06 0)
(-0.00360136 1.55606e-06 0)
(-0.00360713 1.46672e-06 0)
(-0.00360591 8.93958e-07 0)
(-0.00359173 -2.47397e-07 0)
(-0.00355482 -2.51135e-06 0)
(-0.0034837 -7.20594e-06 3.91117e-22)
(-0.00337634 -8.252e-06 0)
(-0.0029936 -6.09653e-05 0)
(5.59718e-05 -0.000469609 -8.5859e-23)
(0.00042484 -0.00111027 1.1352e-22)
(0.000964211 -0.00147699 0)
(0.00157899 -0.00160818 -7.5606e-23)
(0.00216101 -0.00155203 0)
(0.00263007 -0.00135532 -3.25629e-23)
(0.00292673 -0.0010584 6.34286e-23)
(0.00300587 -0.000693783 5.70417e-23)
(0.00283321 -0.000286149 0)
(0.00238312 0.000147045 4.1109e-23)
(0.00163582 0.000594601 1.22276e-23)
(0.000575628 0.00104971 0)
(-0.000810108 0.0015094 0)
(-0.00253278 0.00197334 0)
(-0.00460299 0.00244276 0)
(-0.00703091 0.00291961 -2.12956e-23)
(-0.00982606 0.00340575 0)
(-0.0129968 0.00390233 5.94608e-23)
(-0.0165498 0.00440927 0)
(-0.0204886 0.00492495 0)
(-0.0248128 0.00544595 -1.09864e-22)
(-0.029517 0.005967 0)
(-0.0345891 0.00648101 1.45788e-22)
(-0.0400097 0.00697925 -9.14661e-23)
(-0.0457513 0.00745157 1.00341e-22)
(-0.0517775 0.00788671 -1.08853e-22)
(-0.0580428 0.00827268 -1.16845e-22)
(-0.0644931 0.00859715 0)
(-0.0710657 0.00884793 0)
(-0.0776902 0.00901339 1.35963e-22)
(-0.0842898 0.00908295 -1.28907e-22)
(-0.0907825 0.0090475 0)
(-0.0970828 0.00889982 0)
(-0.103104 0.00863491 1.43189e-22)
(-0.108758 0.00825025 0)
(-0.11396 0.00774599 0)
(-0.118628 0.00712501 -1.28742e-22)
(-0.122688 0.00639289 0)
(-0.126068 0.00555777 1.15181e-22)
(-0.128708 0.0046301 -1.86681e-22)
(-0.130557 0.00362209 0)
(-0.131572 0.00254721 0)
(-0.131723 0.0014205 -1.73866e-22)
(-0.130984 0.000259541 -8.09207e-23)
(-0.129348 -0.000919909 2.07754e-23)
(-0.126817 -0.00210182 -4.55017e-23)
(-0.1234 -0.00327015 1.44166e-22)
(-0.119116 -0.00441033 5.75323e-22)
(-0.113991 -0.00550941 -4.95842e-22)
(-0.108058 -0.00655619 -3.36232e-22)
(-0.101356 -0.00754126 0)
(-0.0939288 -0.00845702 4.6914e-22)
(-0.0858237 -0.00929757 -4.83972e-22)
(-0.0770905 -0.0100585 0)
(-0.0677814 -0.0107364 0)
(-0.0579505 -0.0113288 0)
(-0.0476533 -0.0118334 7.69542e-22)
(-0.0369475 -0.0122478 0)
(-0.0258929 -0.0125686 -1.65625e-21)
(-0.0145534 -0.0127914 0)
(-0.00299825 -0.0129102 -1.75668e-21)
(0.0086989 -0.012918 0)
(0.020459 -0.0128068 1.68337e-21)
(0.0321901 -0.0125692 0)
(0.0437926 -0.012198 -1.51336e-21)
(0.0551583 -0.0116865 6.75662e-22)
(0.0661701 -0.0110297 0)
(0.0767019 -0.010225 1.14488e-21)
(0.0866206 -0.00927359 5.23579e-22)
(0.0957881 -0.00818099 4.46269e-22)
(0.104065 -0.00695797 0)
(0.111312 -0.0056209 2.44037e-22)
(0.117399 -0.00419195 2.04052e-22)
(0.122206 -0.00269897 0)
(0.125629 -0.00117521 -4.66414e-23)
(0.127589 0.000341066 -8.24973e-23)
(0.128034 0.00180935 0)
(0.126949 0.00318819 -1.58985e-22)
(0.124363 0.00443893 0)
(0.120343 0.0055269 8.00959e-22)
(0.115001 0.00642286 0)
(0.10849 0.00710524 -1.01845e-21)
(0.101001 0.00756217 -3.67928e-22)
(0.0927533 0.0077926 3.74119e-22)
(0.083988 0.00780649 7.67293e-22)
(0.0749526 0.00762398 -7.76336e-22)
(0.0658893 0.00727359 0)
(0.057022 0.00678974 0)
(0.048545 0.00620958 0)
(0.0406151 0.00556992 2.33964e-21)
(0.0333472 0.00490438 7.77571e-22)
(0.0268144 0.00424135 -7.54566e-22)
(0.0210507 0.00360302 0)
(0.0160566 0.00300552 -6.65028e-22)
(0.0118051 0.00245994 6.77727e-22)
(0.00824774 0.00197379 6.52121e-22)
(0.00531925 0.00155233 0)
(0.00294184 0.00119915 0)
(0.00102899 0.000916001 0)
(-0.000510226 0.000702109 5.62859e-22)
(-0.00176635 0.00055343 0)
(-0.00282398 0.000462432 -1.04443e-21)
(-0.00375688 0.000418746 -1.53223e-21)
(-0.00462441 0.000410376 9.95812e-22)
(-0.00546979 0.000425126 0)
(-0.00632028 0.000451859 4.76483e-22)
(-0.0071889 0.000481368 0)
(-0.00807707 0.000506764 9.35182e-22)
(-0.00897773 0.000523451 -4.58687e-22)
(-0.00987817 0.000528839 -4.53716e-22)
(-0.0107627 0.000521955 0)
(-0.0116146 0.000503036 -1.34266e-21)
(-0.0124178 0.000473175 8.82613e-22)
(-0.0131581 0.000434028 4.37764e-22)
(-0.0138234 0.000387581 0)
(-0.0144049 0.000335961 4.24761e-22)
(-0.0148966 0.000281296 1.25061e-21)
(-0.0152958 0.000225593 0)
(-0.0156025 0.00017066 8.03602e-22)
(-0.0158192 0.000118035 7.88046e-22)
(-0.0159506 6.8945e-05 7.72059e-22)
(-0.0160031 2.43285e-05 0)
(-0.0159844 -1.49148e-05 0)
(-0.015903 -4.87957e-05 0)
(-0.0157678 -7.71273e-05 -3.53526e-22)
(-0.0155876 -9.99892e-05 -3.44676e-22)
(-0.0153713 -0.000117656 0)
(-0.015127 -0.000130528 -6.59109e-22)
(-0.0148625 -0.000139087 -6.44265e-22)
(-0.0145846 -0.000143861 0)
(-0.0142994 -0.000145395 -6.15038e-22)
(-0.0140122 -0.000144222 -1.20614e-21)
(-0.0137272 -0.00014085 5.89354e-22)
(-0.0134483 -0.000135749 5.79599e-22)
(-0.0131782 -0.000129338 0)
(-0.0129193 -0.000121987 0)
(-0.0126732 -0.000114014 0)
(-0.0124411 -0.000105686 5.34864e-22)
(-0.0122237 -9.72228e-05 -5.26982e-22)
(-0.0120212 -8.88013e-05 -1.03405e-21)
(-0.0118339 -8.0561e-05 5.07548e-22)
(-0.0116615 -7.26085e-05 -5.00321e-22)
(-0.0115036 -6.5022e-05 -4.9095e-22)
(-0.0113596 -5.78565e-05 0)
(-0.011229 -5.11475e-05 0)
(-0.011111 -4.49151e-05 4.68548e-22)
(-0.0110049 -3.91667e-05 0)
(-0.0109098 -3.38998e-05 0)
(-0.0108249 -2.91043e-05 -8.92501e-22)
(-0.0107494 -2.47641e-05 0)
(-0.0106824 -2.08589e-05 -4.32315e-22)
(-0.0106233 -1.7365e-05 4.24997e-22)
(-0.0105713 -1.42566e-05 0)
(-0.0105255 -1.15065e-05 -4.11444e-22)
(-0.0104855 -9.08657e-06 0)
(-0.0104505 -6.96849e-06 0)
(-0.0104199 -5.12363e-06 3.9068e-22)
(-0.0103932 -3.52321e-06 -7.67757e-22)
(-0.0103699 -2.13771e-06 3.76982e-22)
(-0.0103497 -9.35733e-07 0)
(-0.010332 1.18076e-07 0)
(-0.0103168 1.06581e-06 -3.56346e-22)
(-0.0103036 1.95989e-06 0)
(-0.0102927 2.86666e-06 -3.42454e-22)
(-0.0102839 3.86619e-06 0)
(-0.0102777 5.04521e-06 0)
(-0.0102746 6.47823e-06 0)
(-0.0102752 8.19133e-06 -3.14327e-22)
(-0.0102802 1.01035e-05 0)
(-0.0102897 1.19726e-05 2.99818e-22)
(-0.010303 1.35203e-05 0)
(-0.0103181 1.40178e-05 0)
(-0.0103304 1.24258e-05 -5.53508e-22)
(-0.0103323 7.67563e-06 5.37185e-22)
(-0.0103124 -1.98791e-06 0)
(-0.0102547 -1.8454e-05 0)
(-0.0101356 -4.49042e-05 0)
(-0.00992895 -8.64958e-05 -1.39808e-21)
(-0.00961545 -0.000156041 0)
(-0.00885948 -0.000320001 8.53422e-22)
(5.12111e-05 -0.000937379 -8.81154e-24)
(0.00035456 -0.00209017 -1.64537e-22)
(0.000733215 -0.002641 0)
(0.00107999 -0.0027061 1.60334e-22)
(0.00128267 -0.00239069 0)
(0.00125762 -0.00178612 0)
(0.000940689 -0.00096834 8.5373e-24)
(0.000280321 1.85235e-06 -5.72483e-23)
(-0.000765515 0.00107834 -5.88183e-23)
(-0.00223182 0.00222733 -4.10179e-23)
(-0.004148 0.00342535 0)
(-0.00653914 0.00465749 0)
(-0.00942684 0.00591498 2.14883e-23)
(-0.0128297 0.00719315 2.04019e-23)
(-0.0167632 0.00848956 3.73481e-24)
(-0.0212396 0.00980227 0)
(-0.0262667 0.0111283 5.67756e-23)
(-0.0318469 0.0124623 -5.72772e-23)
(-0.0379759 0.0137958 0)
(-0.0446413 0.0151164 1.48169e-22)
(-0.0518213 0.0164078 1.04382e-22)
(-0.0594832 0.0176498 -2.16037e-22)
(-0.0675827 0.018819 -1.3724e-22)
(-0.0760634 0.0198891 0)
(-0.0848568 0.0208325 3.23575e-22)
(-0.0938831 0.0216207 3.59339e-22)
(-0.103052 0.0222262 0)
(-0.112263 0.0226229 4.27391e-22)
(-0.121412 0.0227881 0)
(-0.130386 0.0227028 4.86185e-22)
(-0.139073 0.0223525 2.46813e-22)
(-0.147359 0.0217286 0)
(-0.155136 0.0208279 0)
(-0.162297 0.0196533 0)
(-0.168744 0.0182136 0)
(-0.174388 0.0165231 0)
(-0.17915 0.0146014 0)
(-0.18296 0.0124723 5.02567e-22)
(-0.185764 0.0101637 -6.73321e-22)
(-0.187515 0.00770601 0)
(-0.188184 0.00513152 0)
(-0.187749 0.002474 0)
(-0.1862 -0.000231181 -6.54845e-23)
(-0.183547 -0.00294859 7.53634e-23)
(-0.179803 -0.00564612 2.77402e-23)
(-0.174991 -0.00829306 1.76968e-22)
(-0.16914 -0.0108621 1.64581e-22)
(-0.16229 -0.0133291 -3.45956e-22)
(-0.154484 -0.0156734 6.56463e-23)
(-0.145772 -0.0178779 -5.23772e-22)
(-0.136205 -0.0199292 0)
(-0.125839 -0.0218171 -7.75993e-22)
(-0.114731 -0.0235348 6.45678e-23)
(-0.10294 -0.0250777 0)
(-0.0905233 -0.0264432 0)
(-0.0775403 -0.0276296 1.2546e-21)
(-0.0640498 -0.0286353 0)
(-0.0501113 -0.0294578 0)
(-0.0357857 -0.030093 -1.46687e-21)
(-0.0211369 -0.0305344 -3.20361e-21)
(-0.00623402 -0.0307724 1.7167e-21)
(0.00884951 -0.030795 0)
(0.0240389 -0.0305851 -1.64075e-21)
(0.0392412 -0.030125 0)
(0.0543537 -0.0293972 -1.33594e-21)
(0.0692644 -0.0283848 -1.35151e-21)
(0.0838496 -0.0270729 2.33446e-21)
(0.0979739 -0.0254507 9.74294e-22)
(0.111491 -0.0235127 0)
(0.124244 -0.0212612 -1.49167e-21)
(0.136071 -0.0187073 0)
(0.146803 -0.0158722 -1.38511e-21)
(0.156271 -0.0127884 -5.82043e-22)
(0.164309 -0.00949993 -2.86658e-22)
(0.170759 -0.00606269 3.08101e-24)
(0.175479 -0.00254375 3.41919e-22)
(0.178349 0.00097803 0)
(0.179265 0.00441221 0)
(0.178177 0.00766674 -9.18803e-22)
(0.175081 0.0106517 -1.57844e-21)
(0.170023 0.0132822 0)
(0.163111 0.0154829 6.28002e-22)
(0.154513 0.0171939 0)
(0.144458 0.0183764 -2.15093e-21)
(0.133226 0.0190168 1.79834e-23)
(0.12114 0.0191289 -4.93642e-24)
(0.108546 0.018753 1.49036e-21)
(0.0957958 0.0179527 0)
(0.0832247 0.0168089 -1.4579e-21)
(0.0711311 0.0154121 -3.12792e-23)
(0.0597616 0.0138539 0)
(0.0493021 0.0122196 0)
(0.0398741 0.0105829 0)
(0.0315375 0.0090032 1.32872e-21)
(0.0242981 0.00752625 0)
(0.0181155 0.0061857 0)
(0.0129129 0.00500565 0)
(0.0085859 0.00400212 0)
(0.00501085 0.00318319 0)
(0.00205388 0.00254814 1.08653e-21)
(-0.000419947 0.00208665 0)
(-0.00253807 0.00177909 1.04277e-21)