/*--------------------------------*- C++ -*----------------------------------*\
  =========                 |
  \\      /  F ield         | OpenFOAM: The Open Source CFD Toolbox
   \\    /   O peration     | Website:  https://openfoam.org
    \\  /    A nd           | Version:  8
     \\/     M anipulation  |
\*---------------------------------------------------------------------------*/
FoamFile
{
    version     2.0;
    format      ascii;
    class       volScalarField;
    location    "0.28";
    object      p;
}
// * * * * * * * * * * * * * * * * * * * * * * * * * * * * * * * * * * * * * //

dimensions      [0 2 -2 0 0 0 0];

internalField   nonuniform List<scalar> 
12225
(
-0.896295
-0.898512
-0.891715
-0.885609
-0.879173
-0.873071
-0.867208
-0.861644
-0.856388
-0.851453
-0.846866
-0.842689
-0.839067
-0.836296
-0.83488
-0.835374
-0.839418
-0.851629
-0.898273
-0.898029
-0.891388
-0.885348
-0.878959
-0.872887
-0.867046
-0.861501
-0.856262
-0.851351
-0.846797
-0.842669
-0.839112
-0.836406
-0.834999
-0.835319
-0.838435
-0.846338
-0.900136
-0.897542
-0.890995
-0.885034
-0.878694
-0.872657
-0.86684
-0.861314
-0.856095
-0.851206
-0.846684
-0.842598
-0.839088
-0.836413
-0.834947
-0.83497
-0.837013
-0.841496
-0.901546
-0.897188
-0.890671
-0.884734
-0.878434
-0.872422
-0.866624
-0.861114
-0.855909
-0.851036
-0.846532
-0.842464
-0.838959
-0.83624
-0.834613
-0.834246
-0.835363
-0.837499
-0.902614
-0.896948
-0.890426
-0.884466
-0.878189
-0.872191
-0.866407
-0.860905
-0.855708
-0.850841
-0.846339
-0.842261
-0.838715
-0.835883
-0.833995
-0.833155
-0.833393
-0.833815
-0.903474
-0.896795
-0.890244
-0.884235
-0.877967
-0.87197
-0.866192
-0.86069
-0.855491
-0.850617
-0.846099
-0.841985
-0.838352
-0.835339
-0.833107
-0.831714
-0.831071
-0.830202
-0.904175
-0.896713
-0.89011
-0.884045
-0.877775
-0.871767
-0.865986
-0.860476
-0.855262
-0.850366
-0.845811
-0.841628
-0.837865
-0.83461
-0.831969
-0.82997
-0.828471
-0.826643
-0.904736
-0.89669
-0.890015
-0.883897
-0.877617
-0.871591
-0.865798
-0.86027
-0.855029
-0.850093
-0.845476
-0.841191
-0.837257
-0.833717
-0.83063
-0.82801
-0.82573
-0.8232
-0.905176
-0.896714
-0.889951
-0.883786
-0.877496
-0.871445
-0.865634
-0.860079
-0.854799
-0.849806
-0.845102
-0.840686
-0.836551
-0.832704
-0.829171
-0.825965
-0.823013
-0.819971
-0.90551
-0.896772
-0.889909
-0.883706
-0.877407
-0.871332
-0.865499
-0.85991
-0.85458
-0.849515
-0.844708
-0.840143
-0.835793
-0.831644
-0.827703
-0.82399
-0.820497
-0.817082
-0.905762
-0.896841
-0.889883
-0.883649
-0.877343
-0.871247
-0.865391
-0.859767
-0.854382
-0.849237
-0.844317
-0.839598
-0.835044
-0.830626
-0.826344
-0.822234
-0.818336
-0.814654
-0.905933
-0.896904
-0.889859
-0.883605
-0.877299
-0.871187
-0.865314
-0.859662
-0.854231
-0.849014
-0.843996
-0.839147
-0.834431
-0.829819
-0.825309
-0.820941
-0.816791
-0.812942
-0.906009
-0.897036
-0.889852
-0.88357
-0.877277
-0.871152
-0.865261
-0.859583
-0.85411
-0.848831
-0.843727
-0.83877
-0.833926
-0.829173
-0.824515
-0.819995
-0.8157
-0.811751
-0.906047
-0.897228
-0.889866
-0.883544
-0.877275
-0.87114
-0.86523
-0.85953
-0.854021
-0.848688
-0.843513
-0.83847
-0.833534
-0.828693
-0.823958
-0.819374
-0.815023
-0.811036
-0.906078
-0.89744
-0.889909
-0.883529
-0.877289
-0.871154
-0.865228
-0.859513
-0.853983
-0.848621
-0.843408
-0.838326
-0.833361
-0.82851
-0.823791
-0.819245
-0.814942
-0.810991
-0.906119
-0.89766
-0.889992
-0.883538
-0.877321
-0.871195
-0.865261
-0.859542
-0.854013
-0.848653
-0.843449
-0.83839
-0.833472
-0.828698
-0.824088
-0.819678
-0.815518
-0.811686
-0.906197
-0.897893
-0.890125
-0.883592
-0.877388
-0.871277
-0.865345
-0.859633
-0.854126
-0.848801
-0.843652
-0.838672
-0.833865
-0.829237
-0.824806
-0.820598
-0.816644
-0.812992
-0.906347
-0.89816
-0.890328
-0.883726
-0.877529
-0.871439
-0.86552
-0.859829
-0.85436
-0.849096
-0.84403
-0.839162
-0.834497
-0.830042
-0.825809
-0.821816
-0.818075
-0.814616
-0.906625
-0.898483
-0.890626
-0.883995
-0.877812
-0.871751
-0.865865
-0.860217
-0.854808
-0.849624
-0.844659
-0.839913
-0.835392
-0.8311
-0.827043
-0.823229
-0.819662
-0.816356
-0.907042
-0.898791
-0.890964
-0.884401
-0.878254
-0.872225
-0.866386
-0.860799
-0.85546
-0.850354
-0.845475
-0.840826
-0.836409
-0.832226
-0.82828
-0.824573
-0.821102
-0.817876
-0.907387
-0.899029
-0.891267
-0.884802
-0.878703
-0.872717
-0.866937
-0.861415
-0.856142
-0.851102
-0.846293
-0.841715
-0.837369
-0.833256
-0.829377
-0.825731
-0.822314
-0.819127
-0.907654
-0.899218
-0.891573
-0.885232
-0.879189
-0.873254
-0.867537
-0.862076
-0.856856
-0.851866
-0.847105
-0.842573
-0.838272
-0.8342
-0.830357
-0.826742
-0.823346
-0.820169
-0.907771
-0.899342
-0.891878
-0.88567
-0.879676
-0.873786
-0.868118
-0.862695
-0.857504
-0.852536
-0.847796
-0.843284
-0.839001
-0.834944
-0.831114
-0.827507
-0.824115
-0.820933
-0.90766
-0.899406
-0.892182
-0.886086
-0.880117
-0.87425
-0.868601
-0.863185
-0.857993
-0.853024
-0.848283
-0.84377
-0.839486
-0.83543
-0.831599
-0.827991
-0.824597
-0.821407
-0.907261
-0.899435
-0.892477
-0.886454
-0.88048
-0.87461
-0.868952
-0.863518
-0.858306
-0.853321
-0.848566
-0.844043
-0.83975
-0.835686
-0.83185
-0.828237
-0.824839
-0.821645
-0.90654
-0.899479
-0.892762
-0.886772
-0.880769
-0.874875
-0.86919
-0.863727
-0.858488
-0.853481
-0.848708
-0.844169
-0.839863
-0.835789
-0.831945
-0.828326
-0.824923
-0.821726
-0.905454
-0.899601
-0.89306
-0.887065
-0.881015
-0.875082
-0.869361
-0.863863
-0.858596
-0.853565
-0.848771
-0.844214
-0.839894
-0.835808
-0.831953
-0.828325
-0.824916
-0.821714
-0.903845
-0.899875
-0.893418
-0.887368
-0.881248
-0.875264
-0.8695
-0.863966
-0.858669
-0.853612
-0.848797
-0.844221
-0.839884
-0.835782
-0.831914
-0.828274
-0.824856
-0.821647
-0.901556
-0.900348
-0.893847
-0.887683
-0.881475
-0.875433
-0.869622
-0.864051
-0.858725
-0.853642
-0.848803
-0.844207
-0.839851
-0.835733
-0.831849
-0.828195
-0.824764
-0.821545
-0.899064
-0.900861
-0.894193
-0.887935
-0.881652
-0.87556
-0.869713
-0.864113
-0.858762
-0.853659
-0.848801
-0.844188
-0.839816
-0.835683
-0.831785
-0.828118
-0.824675
-0.821447
-0.79991
-0.799779
-0.799645
-0.79958
-0.799619
-0.799777
-0.800064
-0.800478
-0.801009
-0.801645
-0.802369
-0.803164
-0.804015
-0.804909
-0.80584
-0.806805
-0.807806
-0.80885
-0.809949
-0.811119
-0.812377
-0.813742
-0.815234
-0.81687
-0.818667
-0.820637
-0.82279
-0.825132
-0.827664
-0.830381
-0.833275
-0.836327
-0.839513
-0.8428
-0.846144
-0.849494
-0.852789
-0.855958
-0.858924
-0.861605
-0.863913
-0.865763
-0.867066
-0.867742
-0.867715
-0.866918
-0.865295
-0.862804
-0.859414
-0.85511
-0.849892
-0.843774
-0.836787
-0.828972
-0.820386
-0.811098
-0.801186
-0.79074
-0.779857
-0.768644
-0.75721
-0.745671
-0.734139
-0.722728
-0.711545
-0.70069
-0.690256
-0.680322
-0.670956
-0.66221
-0.654121
-0.646712
-0.639988
-0.633945
-0.62856
-0.623805
-0.61964
-0.616018
-0.612887
-0.610195
-0.607886
-0.605904
-0.604197
-0.602715
-0.60141
-0.600239
-0.599164
-0.59815
-0.597167
-0.59619
-0.595195
-0.594165
-0.593084
-0.59194
-0.590724
-0.589428
-0.588046
-0.586574
-0.585008
-0.583348
-0.581592
-0.579739
-0.57779
-0.575747
-0.573609
-0.571379
-0.569058
-0.566648
-0.564151
-0.561571
-0.558909
-0.556167
-0.553349
-0.550457
-0.547495
-0.544464
-0.541368
-0.538209
-0.53499
-0.531715
-0.528385
-0.525003
-0.521572
-0.518093
-0.51457
-0.511004
-0.507397
-0.503751
-0.500067
-0.496347
-0.492592
-0.488802
-0.48498
-0.481126
-0.477241
-0.473325
-0.46938
-0.465404
-0.461399
-0.457364
-0.453301
-0.449208
-0.445087
-0.440937
-0.436757
-0.432549
-0.428311
-0.424043
-0.419746
-0.415419
-0.41106
-0.406671
-0.402251
-0.397799
-0.393315
-0.388798
-0.384249
-0.379666
-0.37505
-0.370399
-0.365714
-0.360995
-0.35624
-0.35145
-0.346624
-0.341762
-0.336864
-0.331929
-0.326958
-0.321949
-0.316902
-0.311816
-0.306692
-0.301527
-0.296318
-0.291058
-0.285741
-0.280361
-0.274822
-0.268992
-0.800244
-0.800059
-0.799899
-0.79984
-0.799894
-0.800066
-0.800357
-0.800764
-0.801277
-0.801881
-0.802561
-0.8033
-0.804085
-0.804906
-0.805756
-0.806634
-0.807543
-0.808493
-0.809494
-0.810562
-0.811714
-0.81297
-0.814347
-0.815863
-0.817532
-0.81937
-0.821385
-0.823586
-0.825976
-0.828555
-0.831317
-0.83425
-0.837335
-0.840544
-0.843842
-0.847181
-0.850505
-0.853746
-0.856829
-0.85967
-0.862179
-0.864262
-0.865827
-0.866784
-0.867049
-0.866546
-0.865214
-0.863001
-0.859872
-0.855809
-0.850808
-0.844885
-0.838069
-0.830404
-0.821942
-0.812743
-0.802887
-0.792473
-0.781605
-0.770391
-0.758943
-0.747376
-0.735806
-0.724346
-0.713107
-0.70219
-0.691689
-0.681685
-0.672247
-0.663428
-0.655268
-0.647787
-0.640995
-0.634883
-0.629433
-0.624615
-0.620388
-0.616705
-0.613517
-0.610767
-0.608402
-0.606367
-0.604608
-0.603075
-0.601721
-0.600505
-0.599386
-0.598332
-0.597311
-0.596298
-0.595271
-0.594212
-0.593106
-0.59194
-0.590704
-0.589391
-0.587995
-0.586511
-0.584937
-0.583269
-0.581508
-0.579651
-0.577701
-0.575656
-0.573519
-0.571289
-0.56897
-0.566563
-0.56407
-0.561493
-0.558834
-0.556097
-0.553283
-0.550395
-0.547437
-0.54441
-0.541318
-0.538163
-0.534949
-0.531677
-0.528351
-0.524972
-0.521544
-0.518069
-0.514548
-0.510985
-0.50738
-0.503736
-0.500054
-0.496335
-0.492582
-0.488794
-0.484973
-0.481121
-0.477237
-0.473322
-0.469377
-0.465401
-0.461397
-0.457363
-0.4533
-0.449208
-0.445086
-0.440936
-0.436757
-0.432549
-0.428311
-0.424043
-0.419746
-0.415419
-0.41106
-0.406671
-0.402251
-0.397799
-0.393315
-0.388798
-0.384249
-0.379666
-0.375049
-0.370399
-0.365714
-0.360995
-0.35624
-0.35145
-0.346624
-0.341762
-0.336864
-0.331929
-0.326958
-0.321949
-0.316903
-0.311818
-0.306694
-0.30153
-0.296323
-0.291066
-0.285755
-0.28039
-0.274874
-0.269147
-0.80023
-0.800006
-0.799825
-0.799774
-0.799856
-0.800063
-0.800391
-0.800829
-0.801364
-0.801977
-0.80265
-0.803364
-0.804105
-0.804863
-0.805633
-0.806416
-0.807217
-0.808048
-0.808923
-0.809862
-0.810883
-0.812008
-0.813256
-0.814649
-0.816205
-0.81794
-0.819872
-0.822015
-0.824379
-0.826974
-0.829802
-0.832859
-0.836133
-0.839599
-0.843219
-0.846942
-0.850703
-0.854422
-0.858007
-0.86136
-0.864372
-0.866937
-0.868947
-0.870301
-0.870907
-0.870685
-0.869569
-0.867512
-0.864481
-0.860462
-0.855459
-0.849495
-0.842601
-0.834813
-0.82619
-0.816821
-0.806797
-0.79621
-0.785163
-0.773763
-0.762124
-0.750362
-0.738594
-0.726934
-0.715493
-0.704376
-0.69368
-0.683487
-0.673868
-0.66488
-0.656561
-0.648937
-0.642014
-0.635787
-0.630234
-0.625325
-0.621018
-0.617266
-0.614016
-0.611213
-0.608801
-0.606722
-0.604925
-0.603357
-0.601971
-0.600724
-0.599577
-0.598496
-0.59745
-0.596414
-0.595366
-0.594287
-0.593162
-0.591979
-0.590729
-0.589402
-0.587994
-0.5865
-0.584917
-0.583242
-0.581475
-0.579614
-0.57766
-0.575613
-0.573473
-0.571243
-0.568924
-0.566517
-0.564024
-0.561448
-0.558791
-0.556055
-0.553243
-0.550358
-0.547401
-0.544377
-0.541287
-0.538134
-0.534922
-0.531652
-0.528328
-0.524951
-0.521525
-0.518051
-0.514532
-0.51097
-0.507367
-0.503724
-0.500044
-0.496326
-0.492574
-0.488787
-0.484967
-0.481115
-0.477231
-0.473317
-0.469372
-0.465398
-0.461393
-0.45736
-0.453297
-0.449205
-0.445084
-0.440934
-0.436755
-0.432547
-0.428309
-0.424042
-0.419745
-0.415417
-0.411059
-0.40667
-0.40225
-0.397798
-0.393314
-0.388797
-0.384247
-0.379665
-0.375048
-0.370398
-0.365713
-0.360993
-0.356239
-0.351449
-0.346623
-0.341761
-0.336863
-0.331929
-0.326958
-0.321949
-0.316903
-0.311819
-0.306696
-0.301534
-0.296329
-0.291078
-0.285778
-0.280428
-0.274958
-0.269378
-0.799692
-0.799473
-0.799314
-0.799304
-0.799443
-0.799718
-0.800116
-0.800622
-0.801216
-0.801873
-0.80257
-0.803288
-0.80401
-0.804726
-0.805432
-0.806131
-0.806835
-0.807557
-0.80832
-0.809147
-0.810065
-0.811102
-0.812289
-0.813654
-0.815228
-0.817041
-0.819121
-0.821496
-0.824189
-0.827217
-0.830585
-0.834285
-0.838296
-0.842576
-0.847064
-0.851682
-0.856334
-0.86091
-0.865291
-0.869352
-0.872969
-0.876019
-0.878391
-0.879983
-0.880708
-0.880496
-0.879293
-0.877067
-0.873799
-0.869491
-0.86416
-0.857831
-0.850542
-0.842355
-0.833352
-0.823609
-0.813214
-0.802259
-0.790846
-0.779083
-0.767081
-0.754957
-0.742826
-0.730805
-0.719008
-0.707541
-0.696504
-0.685985
-0.676058
-0.666781
-0.658198
-0.650335
-0.643199
-0.636784
-0.63107
-0.626024
-0.621602
-0.617755
-0.614428
-0.611562
-0.6091
-0.606982
-0.605154
-0.603562
-0.602157
-0.600895
-0.599736
-0.598645
-0.597591
-0.596547
-0.595491
-0.594405
-0.593273
-0.592083
-0.590825
-0.589492
-0.588077
-0.586576
-0.584986
-0.583305
-0.581532
-0.579665
-0.577706
-0.575653
-0.57351
-0.571275
-0.568952
-0.566541
-0.564045
-0.561466
-0.558806
-0.556068
-0.553253
-0.550366
-0.547408
-0.544381
-0.54129
-0.538136
-0.534922
-0.531652
-0.528326
-0.524949
-0.521522
-0.518048
-0.514529
-0.510967
-0.507363
-0.50372
-0.500039
-0.496322
-0.492569
-0.488782
-0.484963
-0.48111
-0.477227
-0.473312
-0.469368
-0.465393
-0.461389
-0.457355
-0.453293
-0.449201
-0.44508
-0.44093
-0.436751
-0.432543
-0.428306
-0.424039
-0.419741
-0.415414
-0.411056
-0.406667
-0.402247
-0.397795
-0.393311
-0.388795
-0.384245
-0.379662
-0.375046
-0.370396
-0.365711
-0.360991
-0.356237
-0.351447
-0.346621
-0.34176
-0.336862
-0.331927
-0.326956
-0.321948
-0.316903
-0.31182
-0.306698
-0.301538
-0.296337
-0.291093
-0.285807
-0.28047
-0.275047
-0.269622
-0.798575
-0.798407
-0.798317
-0.798388
-0.798616
-0.798984
-0.799477
-0.800071
-0.800741
-0.80146
-0.802201
-0.802943
-0.803669
-0.804371
-0.805047
-0.805705
-0.806361
-0.807037
-0.807764
-0.808576
-0.809515
-0.810622
-0.811944
-0.813529
-0.815424
-0.817677
-0.82033
-0.823417
-0.826962
-0.83097
-0.835429
-0.840303
-0.845533
-0.851038
-0.856714
-0.862444
-0.868095
-0.873531
-0.878612
-0.883204
-0.887179
-0.890422
-0.892832
-0.894323
-0.89483
-0.894302
-0.892706
-0.890027
-0.886267
-0.881439
-0.87557
-0.868699
-0.860886
-0.852198
-0.842705
-0.832484
-0.82162
-0.810207
-0.798341
-0.786127
-0.773675
-0.761098
-0.748513
-0.736036
-0.723783
-0.711865
-0.700385
-0.689437
-0.679101
-0.66944
-0.660501
-0.652312
-0.644884
-0.638211
-0.632272
-0.627032
-0.622447
-0.618464
-0.615024
-0.612068
-0.609533
-0.607358
-0.605486
-0.603861
-0.602431
-0.601152
-0.59998
-0.598879
-0.597817
-0.596768
-0.595707
-0.594616
-0.59348
-0.592285
-0.591021
-0.589681
-0.588259
-0.58675
-0.585152
-0.583462
-0.58168
-0.579804
-0.577836
-0.575774
-0.573622
-0.571378
-0.569046
-0.566627
-0.564124
-0.561537
-0.558869
-0.556124
-0.553303
-0.55041
-0.547446
-0.544414
-0.541318
-0.53816
-0.534943
-0.531668
-0.52834
-0.52496
-0.521531
-0.518054
-0.514533
-0.510969
-0.507364
-0.50372
-0.500038
-0.496319
-0.492566
-0.488778
-0.484958
-0.481105
-0.477221
-0.473307
-0.469362
-0.465387
-0.461383
-0.457349
-0.453287
-0.449195
-0.445074
-0.440925
-0.436746
-0.432538
-0.428301
-0.424034
-0.419737
-0.41541
-0.411052
-0.406663
-0.402243
-0.397791
-0.393308
-0.388791
-0.384242
-0.379659
-0.375043
-0.370393
-0.365708
-0.360988
-0.356234
-0.351444
-0.346618
-0.341757
-0.336859
-0.331925
-0.326954
-0.321947
-0.316902
-0.31182
-0.3067
-0.301542
-0.296345
-0.291108
-0.285835
-0.280511
-0.275128
-0.269817
-0.796819
-0.796739
-0.796755
-0.796933
-0.797266
-0.797737
-0.798328
-0.799014
-0.799765
-0.800554
-0.801354
-0.802145
-0.802911
-0.803648
-0.804359
-0.805058
-0.805771
-0.806534
-0.807389
-0.80839
-0.809596
-0.811069
-0.812878
-0.815089
-0.817764
-0.820957
-0.824707
-0.829036
-0.833939
-0.839387
-0.845322
-0.851659
-0.858291
-0.86509
-0.871915
-0.878618
-0.885049
-0.891064
-0.896524
-0.901306
-0.905296
-0.908401
-0.91054
-0.911653
-0.911692
-0.91063
-0.908454
-0.905163
-0.900773
-0.895311
-0.888816
-0.88134
-0.872944
-0.863692
-0.853655
-0.842909
-0.831537
-0.819627
-0.807272
-0.79457
-0.781627
-0.768553
-0.755461
-0.742471
-0.729699
-0.717261
-0.705267
-0.693816
-0.682996
-0.672876
-0.663509
-0.654928
-0.647146
-0.640158
-0.633942
-0.628463
-0.623673
-0.619517
-0.615934
-0.612859
-0.610228
-0.607976
-0.606043
-0.604369
-0.602903
-0.601594
-0.6004
-0.599282
-0.598207
-0.597147
-0.596076
-0.594976
-0.59383
-0.592624
-0.59135
-0.589998
-0.588563
-0.587041
-0.585429
-0.583724
-0.581927
-0.580035
-0.578051
-0.575974
-0.573806
-0.571547
-0.5692
-0.566767
-0.564249
-0.561649
-0.55897
-0.556213
-0.553381
-0.550477
-0.547504
-0.544464
-0.541361
-0.538196
-0.534972
-0.531692
-0.528359
-0.524974
-0.521541
-0.518061
-0.514537
-0.510971
-0.507364
-0.503717
-0.500034
-0.496314
-0.49256
-0.488771
-0.48495
-0.481097
-0.477213
-0.473298
-0.469353
-0.465378
-0.461374
-0.457341
-0.453278
-0.449187
-0.445066
-0.440917
-0.436739
-0.432531
-0.428294
-0.424027
-0.419731
-0.415404
-0.411046
-0.406658
-0.402238
-0.397787
-0.393303
-0.388787
-0.384238
-0.379655
-0.375039
-0.370389
-0.365704
-0.360985
-0.356231
-0.351441
-0.346615
-0.341754
-0.336856
-0.331922
-0.326952
-0.321944
-0.3169
-0.311818
-0.3067
-0.301544
-0.29635
-0.29112
-0.285856
-0.280544
-0.275183
-0.269929
-0.794401
-0.794439
-0.794586
-0.794878
-0.795314
-0.795881
-0.79656
-0.797326
-0.798155
-0.799019
-0.799895
-0.800766
-0.801623
-0.802467
-0.803312
-0.804184
-0.805123
-0.80618
-0.80742
-0.808913
-0.810742
-0.812988
-0.815732
-0.819047
-0.822992
-0.827604
-0.832894
-0.838841
-0.845394
-0.852469
-0.859957
-0.867725
-0.875625
-0.883501
-0.891194
-0.898551
-0.905425
-0.911682
-0.917203
-0.921881
-0.925628
-0.928369
-0.930047
-0.930618
-0.930057
-0.928351
-0.925501
-0.921521
-0.916439
-0.910297
-0.903142
-0.895031
-0.886026
-0.876194
-0.865605
-0.854334
-0.842458
-0.830059
-0.817223
-0.80404
-0.79061
-0.777035
-0.763429
-0.749906
-0.736588
-0.723595
-0.711044
-0.699043
-0.687687
-0.677055
-0.667208
-0.658183
-0.649998
-0.642649
-0.636115
-0.630359
-0.625331
-0.620972
-0.617218
-0.614001
-0.611252
-0.608904
-0.606892
-0.605155
-0.603637
-0.602287
-0.601059
-0.599914
-0.598815
-0.597733
-0.596642
-0.595523
-0.594358
-0.593133
-0.591839
-0.590466
-0.589009
-0.587464
-0.585829
-0.5841
-0.582278
-0.580362
-0.578352
-0.576251
-0.574059
-0.571777
-0.569407
-0.566952
-0.564414
-0.561795
-0.559097
-0.556324
-0.553477
-0.550559
-0.547573
-0.544521
-0.541407
-0.538233
-0.535001
-0.531714
-0.528374
-0.524984
-0.521547
-0.518063
-0.514536
-0.510966
-0.507357
-0.503709
-0.500024
-0.496303
-0.492548
-0.488759
-0.484937
-0.481084
-0.4772
-0.473285
-0.46934
-0.465366
-0.461362
-0.457329
-0.453267
-0.449176
-0.445056
-0.440907
-0.436729
-0.432522
-0.428286
-0.424019
-0.419723
-0.415397
-0.41104
-0.406652
-0.402232
-0.397781
-0.393298
-0.388782
-0.384233
-0.379651
-0.375035
-0.370385
-0.3657
-0.360981
-0.356227
-0.351437
-0.346611
-0.34175
-0.336852
-0.331918
-0.326948
-0.32194
-0.316896
-0.311815
-0.306697
-0.301543
-0.296351
-0.291125
-0.285865
-0.28056
-0.275205
-0.269959
-0.791377
-0.791552
-0.791839
-0.79224
-0.792762
-0.793401
-0.794147
-0.79498
-0.795881
-0.796829
-0.797806
-0.798804
-0.799823
-0.800877
-0.801995
-0.803218
-0.804606
-0.806228
-0.808169
-0.81052
-0.813372
-0.816816
-0.820927
-0.825762
-0.83135
-0.837688
-0.844737
-0.852423
-0.86064
-0.869255
-0.87812
-0.887071
-0.895944
-0.904576
-0.912813
-0.920511
-0.927541
-0.933787
-0.939149
-0.943541
-0.946893
-0.949147
-0.950263
-0.950212
-0.948983
-0.946577
-0.943006
-0.938299
-0.932499
-0.925657
-0.917826
-0.909071
-0.899458
-0.889055
-0.877934
-0.866166
-0.853822
-0.840976
-0.827704
-0.814087
-0.800213
-0.786179
-0.772089
-0.758058
-0.744208
-0.730663
-0.717547
-0.70498
-0.693066
-0.681895
-0.671537
-0.662036
-0.653416
-0.645675
-0.638793
-0.632732
-0.62744
-0.622855
-0.618908
-0.615528
-0.612642
-0.61018
-0.608072
-0.606256
-0.604672
-0.603266
-0.601991
-0.600804
-0.599668
-0.598553
-0.597431
-0.596281
-0.595086
-0.593831
-0.592505
-0.5911
-0.58961
-0.58803
-0.586359
-0.584595
-0.582737
-0.580785
-0.578741
-0.576604
-0.574378
-0.572064
-0.569663
-0.567179
-0.564613
-0.561968
-0.559246
-0.55645
-0.553583
-0.550646
-0.547644
-0.544578
-0.541451
-0.538265
-0.535023
-0.531727
-0.528381
-0.524985
-0.521542
-0.518054
-0.514523
-0.510952
-0.50734
-0.503691
-0.500004
-0.496283
-0.492527
-0.488738
-0.484917
-0.481064
-0.477181
-0.473266
-0.469322
-0.465349
-0.461346
-0.457314
-0.453252
-0.449162
-0.445043
-0.440895
-0.436718
-0.432511
-0.428275
-0.42401
-0.419714
-0.415388
-0.411032
-0.406645
-0.402226
-0.397775
-0.393292
-0.388776
-0.384228
-0.379646
-0.37503
-0.37038
-0.365696
-0.360976
-0.356222
-0.351432
-0.346607
-0.341745
-0.336847
-0.331913
-0.326943
-0.321935
-0.316891
-0.31181
-0.306692
-0.301537
-0.296346
-0.29112
-0.285859
-0.280556
-0.275194
-0.269925
-0.787911
-0.788232
-0.788655
-0.789146
-0.789728
-0.790415
-0.791208
-0.792098
-0.793073
-0.794122
-0.795239
-0.796427
-0.797704
-0.799099
-0.800658
-0.802443
-0.804531
-0.807012
-0.809981
-0.813535
-0.817766
-0.822747
-0.828529
-0.835128
-0.842525
-0.850666
-0.859455
-0.868769
-0.878462
-0.88837
-0.898323
-0.908152
-0.917693
-0.926795
-0.935316
-0.94313
-0.950125
-0.956202
-0.961279
-0.965283
-0.968159
-0.969863
-0.970366
-0.969653
-0.967722
-0.964586
-0.96027
-0.95482
-0.948292
-0.94074
-0.93223
-0.922834
-0.912624
-0.901674
-0.890053
-0.87783
-0.865072
-0.851841
-0.838204
-0.824227
-0.809986
-0.795567
-0.781064
-0.766588
-0.752258
-0.738204
-0.724556
-0.711442
-0.698982
-0.687275
-0.676402
-0.666418
-0.657351
-0.649204
-0.641959
-0.635577
-0.630003
-0.625174
-0.621017
-0.617457
-0.614417
-0.611824
-0.609606
-0.607694
-0.606028
-0.604551
-0.603213
-0.601971
-0.600784
-0.599622
-0.598455
-0.597262
-0.596023
-0.594724
-0.593354
-0.591904
-0.590367
-0.588741
-0.587023
-0.585211
-0.583305
-0.581306
-0.579214
-0.577033
-0.574763
-0.572406
-0.569966
-0.567443
-0.564842
-0.562164
-0.559412
-0.556588
-0.553696
-0.550737
-0.547715
-0.544631
-0.541488
-0.538289
-0.535035
-0.53173
-0.528375
-0.524972
-0.521524
-0.518032
-0.514498
-0.510924
-0.507311
-0.50366
-0.499974
-0.496252
-0.492497
-0.488709
-0.484888
-0.481036
-0.477154
-0.473241
-0.469298
-0.465326
-0.461324
-0.457293
-0.453233
-0.449144
-0.445026
-0.440879
-0.436703
-0.432498
-0.428263
-0.423999
-0.419704
-0.415378
-0.411023
-0.406636
-0.402218
-0.397768
-0.393285
-0.38877
-0.384222
-0.37964
-0.375024
-0.370375
-0.36569
-0.360971
-0.356217
-0.351427
-0.346602
-0.34174
-0.336842
-0.331908
-0.326936
-0.321928
-0.316883
-0.311801
-0.306682
-0.301526
-0.296334
-0.291105
-0.285839
-0.280531
-0.275155
-0.269849
-0.784292
-0.784752
-0.785294
-0.785852
-0.78647
-0.787185
-0.788014
-0.788958
-0.790019
-0.7912
-0.792511
-0.793973
-0.795618
-0.797497
-0.799675
-0.802231
-0.805259
-0.808855
-0.813117
-0.818132
-0.823968
-0.830666
-0.838233
-0.846635
-0.855801
-0.865623
-0.875964
-0.886666
-0.897559
-0.908469
-0.919224
-0.929663
-0.939632
-0.948994
-0.957624
-0.965411
-0.972258
-0.978081
-0.982806
-0.986376
-0.988743
-0.989874
-0.989749
-0.988363
-0.985724
-0.981852
-0.976791
-0.970601
-0.963341
-0.955078
-0.945891
-0.93586
-0.925066
-0.913588
-0.901498
-0.888864
-0.875744
-0.862195
-0.848268
-0.834018
-0.819503
-0.804794
-0.789974
-0.775145
-0.760422
-0.745935
-0.731821
-0.718218
-0.705256
-0.693049
-0.681688
-0.671238
-0.661735
-0.653188
-0.645581
-0.638874
-0.633012
-0.62793
-0.623552
-0.619799
-0.616592
-0.613854
-0.611507
-0.609483
-0.607719
-0.606155
-0.604739
-0.603425
-0.602172
-0.600947
-0.59972
-0.598468
-0.597171
-0.595814
-0.594385
-0.592876
-0.591281
-0.589595
-0.587816
-0.585944
-0.583978
-0.58192
-0.579772
-0.577534
-0.57521
-0.572802
-0.570313
-0.567745
-0.565101
-0.562383
-0.559595
-0.556738
-0.553816
-0.55083
-0.547784
-0.544679
-0.541518
-0.538304
-0.535037
-0.531721
-0.528357
-0.524947
-0.521493
-0.517997
-0.51446
-0.510883
-0.507269
-0.503618
-0.499932
-0.496211
-0.492456
-0.488669
-0.48485
-0.481
-0.477119
-0.473208
-0.469267
-0.465297
-0.461297
-0.457268
-0.45321
-0.449123
-0.445006
-0.440861
-0.436686
-0.432483
-0.428249
-0.423986
-0.419693
-0.415369
-0.411014
-0.406627
-0.40221
-0.39776
-0.393278
-0.388764
-0.384216
-0.379635
-0.37502
-0.370371
-0.365687
-0.360968
-0.356213
-0.351423
-0.346597
-0.341735
-0.336837
-0.331901
-0.326929
-0.32192
-0.316874
-0.31179
-0.306669
-0.301511
-0.296315
-0.291081
-0.285807
-0.280489
-0.275095
-0.269752
-0.780903
-0.781481
-0.782119
-0.78272
-0.783356
-0.784089
-0.784949
-0.785958
-0.787132
-0.788489
-0.790058
-0.791878
-0.794002
-0.796498
-0.799448
-0.802945
-0.807086
-0.811966
-0.817668
-0.824255
-0.831758
-0.840175
-0.849461
-0.859534
-0.870276
-0.881542
-0.893167
-0.904977
-0.916793
-0.928444
-0.939768
-0.950612
-0.960839
-0.970325
-0.978958
-0.986641
-0.993286
-0.99882
-1.00318
-1.00631
-1.00818
-1.00875
-1.00802
-1.00598
-1.00265
-0.998064
-0.992282
-0.985365
-0.977378
-0.968408
-0.958545
-0.947883
-0.936512
-0.924519
-0.911981
-0.898965
-0.885528
-0.871714
-0.857566
-0.843121
-0.828422
-0.813521
-0.798489
-0.783413
-0.768401
-0.753583
-0.739098
-0.725091
-0.711703
-0.69906
-0.687266
-0.676395
-0.666492
-0.657571
-0.649619
-0.642598
-0.636454
-0.63112
-0.626516
-0.622562
-0.619175
-0.616277
-0.613788
-0.611638
-0.60976
-0.608091
-0.606579
-0.605176
-0.60384
-0.602534
-0.60123
-0.599902
-0.598531
-0.5971
-0.595598
-0.594015
-0.592346
-0.590586
-0.588735
-0.58679
-0.584753
-0.582625
-0.580408
-0.578105
-0.575717
-0.573249
-0.570703
-0.568082
-0.565388
-0.562625
-0.559794
-0.5569
-0.553943
-0.550927
-0.547854
-0.544726
-0.541544
-0.538312
-0.535031
-0.531702
-0.528328
-0.524911
-0.52145
-0.51795
-0.514409
-0.510831
-0.507216
-0.503564
-0.499879
-0.496159
-0.492406
-0.488621
-0.484804
-0.480956
-0.477078
-0.473169
-0.469231
-0.465262
-0.461265
-0.457238
-0.453182
-0.449097
-0.444983
-0.44084
-0.436667
-0.432465
-0.428233
-0.423971
-0.419679
-0.415356
-0.411002
-0.406617
-0.4022
-0.397751
-0.39327
-0.388756
-0.384209
-0.379628
-0.375013
-0.370364
-0.36568
-0.360961
-0.356207
-0.351417
-0.346591
-0.341728
-0.336829
-0.331893
-0.32692
-0.32191
-0.316862
-0.311777
-0.306653
-0.301491
-0.29629
-0.291049
-0.285765
-0.280435
-0.275024
-0.269645
-0.778158
-0.778829
-0.779534
-0.780159
-0.780803
-0.781551
-0.782455
-0.78355
-0.784869
-0.786448
-0.788335
-0.790586
-0.793272
-0.796478
-0.800296
-0.804823
-0.810151
-0.816361
-0.823511
-0.831629
-0.840705
-0.85069
-0.861496
-0.873
-0.885051
-0.89748
-0.91011
-0.922762
-0.935261
-0.947445
-0.95916
-0.970267
-0.980643
-0.990173
-0.998757
-1.00631
-1.01274
-1.01799
-1.02201
-1.02474
-1.02615
-1.02621
-1.02492
-1.02228
-1.01831
-1.01306
-1.00659
-0.998959
-0.990263
-0.980596
-0.970064
-0.958774
-0.946831
-0.934331
-0.921358
-0.907981
-0.894255
-0.880218
-0.865899
-0.851324
-0.836517
-0.821513
-0.806366
-0.791148
-0.775958
-0.760919
-0.746171
-0.731865
-0.718149
-0.70516
-0.693011
-0.681787
-0.67154
-0.662291
-0.654031
-0.646725
-0.640316
-0.634735
-0.629907
-0.625749
-0.622177
-0.619109
-0.616466
-0.614174
-0.612163
-0.610373
-0.608747
-0.607235
-0.605795
-0.604391
-0.60299
-0.601568
-0.600104
-0.598582
-0.596989
-0.595316
-0.593559
-0.591711
-0.589773
-0.587743
-0.585623
-0.583414
-0.581119
-0.57874
-0.576281
-0.573745
-0.571135
-0.568453
-0.565704
-0.562889
-0.560012
-0.557075
-0.55408
-0.55103
-0.547927
-0.544772
-0.541568
-0.538316
-0.535019
-0.531677
-0.528292
-0.524865
-0.521398
-0.517893
-0.514349
-0.510769
-0.507152
-0.503501
-0.499816
-0.496098
-0.492347
-0.488564
-0.48475
-0.480905
-0.477029
-0.473123
-0.469188
-0.465223
-0.461228
-0.457204
-0.453151
-0.449068
-0.444956
-0.440815
-0.436644
-0.432444
-0.428214
-0.423954
-0.419663
-0.415341
-0.410989
-0.406605
-0.402189
-0.397741
-0.393261
-0.388747
-0.384201
-0.37962
-0.375006
-0.370357
-0.365673
-0.360955
-0.3562
-0.35141
-0.346584
-0.341721
-0.336821
-0.331884
-0.32691
-0.321899
-0.316849
-0.311761
-0.306634
-0.301467
-0.296261
-0.291012
-0.285717
-0.280373
-0.274947
-0.269534
-0.776457
-0.777181
-0.777921
-0.778555
-0.779205
-0.779978
-0.78094
-0.782144
-0.783636
-0.785472
-0.787713
-0.790434
-0.793719
-0.797663
-0.802362
-0.807909
-0.814385
-0.821847
-0.830323
-0.839805
-0.850243
-0.86155
-0.873602
-0.886248
-0.899318
-0.912634
-0.926013
-0.939281
-0.952269
-0.964824
-0.976804
-0.988081
-0.998539
-1.00807
-1.01659
-1.02401
-1.03026
-1.03527
-1.039
-1.04138
-1.0424
-1.04202
-1.04024
-1.03706
-1.03251
-1.02665
-1.01953
-1.01123
-1.00185
-0.991514
-0.980335
-0.968438
-0.955941
-0.942951
-0.929562
-0.915846
-0.901857
-0.887629
-0.873182
-0.858526
-0.843671
-0.828636
-0.813456
-0.798189
-0.782922
-0.767771
-0.752873
-0.73838
-0.724446
-0.711215
-0.698809
-0.687322
-0.676811
-0.667299
-0.658781
-0.651224
-0.644577
-0.638772
-0.633731
-0.629372
-0.625611
-0.622365
-0.619555
-0.617106
-0.614948
-0.613017
-0.611256
-0.609616
-0.608052
-0.606526
-0.605008
-0.603471
-0.601894
-0.60026
-0.598558
-0.596779
-0.594916
-0.592966
-0.590927
-0.588799
-0.586584
-0.584283
-0.5819
-0.579437
-0.576898
-0.574286
-0.571605
-0.568857
-0.566047
-0.563176
-0.560248
-0.557264
-0.554228
-0.55114
-0.548004
-0.544821
-0.541592
-0.538319
-0.535004
-0.531647
-0.52825
-0.524814
-0.52134
-0.517829
-0.514281
-0.510699
-0.507081
-0.50343
-0.499746
-0.496029
-0.492281
-0.4885
-0.484689
-0.480847
-0.476975
-0.473072
-0.46914
-0.465178
-0.461186
-0.457166
-0.453115
-0.449035
-0.444926
-0.440788
-0.436619
-0.432421
-0.428193
-0.423934
-0.419645
-0.415326
-0.410974
-0.406592
-0.402177
-0.39773
-0.39325
-0.388738
-0.384192
-0.379612
-0.374998
-0.370349
-0.365666
-0.360947
-0.356193
-0.351403
-0.346576
-0.341713
-0.336812
-0.331875
-0.326899
-0.321886
-0.316834
-0.311743
-0.306613
-0.301442
-0.296228
-0.290971
-0.285666
-0.280308
-0.274869
-0.269426
-0.77609
-0.776828
-0.777573
-0.778206
-0.778865
-0.779671
-0.780705
-0.782029
-0.783708
-0.785807
-0.788405
-0.791586
-0.795446
-0.800082
-0.805589
-0.812052
-0.819532
-0.828065
-0.837648
-0.84824
-0.859761
-0.872094
-0.885091
-0.898586
-0.9124
-0.926349
-0.940256
-0.953951
-0.967273
-0.980077
-0.992231
-1.00361
-1.01411
-1.02364
-1.0321
-1.03941
-1.04551
-1.05033
-1.05382
-1.05593
-1.05662
-1.05588
-1.05368
-1.05003
-1.04497
-1.03856
-1.03085
-1.02193
-1.01193
-1.00098
-0.989204
-0.976748
-0.963742
-0.950307
-0.936541
-0.922524
-0.908309
-0.893927
-0.879389
-0.864694
-0.849839
-0.834828
-0.819681
-0.804442
-0.789187
-0.774024
-0.759086
-0.744526
-0.730498
-0.717147
-0.704598
-0.692947
-0.682258
-0.672557
-0.663844
-0.656089
-0.649241
-0.643234
-0.637995
-0.633442
-0.629492
-0.626063
-0.623076
-0.620456
-0.618132
-0.616041
-0.614125
-0.612334