/*--------------------------------*- C++ -*----------------------------------*\
  =========                 |
  \\      /  F ield         | OpenFOAM: The Open Source CFD Toolbox
   \\    /   O peration     | Website:  https://openfoam.org
    \\  /    A nd           | Version:  8
     \\/     M anipulation  |
\*---------------------------------------------------------------------------*/
FoamFile
{
    version     2.0;
    format      ascii;
    class       surfaceScalarField;
    location    "0.28";
    object      phi;
}
// * * * * * * * * * * * * * * * * * * * * * * * * * * * * * * * * * * * * * //

dimensions      [0 3 -1 0 0 0 0];

internalField   nonuniform List<scalar> 
24170
(
2.49932e-09
1.12833e-08
5.52186e-11
2.4441e-09
-9.98104e-10
1.05332e-09
-1.6838e-09
6.85692e-10
-2.19405e-09
5.10254e-10
-2.60688e-09
4.12833e-10
-2.95024e-09
3.43356e-10
-3.23823e-09
2.87992e-10
-3.47402e-09
2.35792e-10
-3.65066e-09
1.76635e-10
-3.74714e-09
9.64827e-11
-3.72469e-09
-2.24459e-11
-3.52988e-09
-1.94818e-10
-3.11859e-09
-4.11284e-10
-2.52332e-09
-5.9527e-10
-2.00544e-09
-5.17883e-10
-2.4973e-09
4.91858e-10
1.06059e-08
-1.31032e-08
6.66458e-09
1.93905e-08
1.30774e-09
7.80094e-09
-1.81604e-09
4.17709e-09
-3.93328e-09
2.80294e-09
-5.58244e-09
2.15941e-09
-6.92632e-09
1.75672e-09
-8.05999e-09
1.47702e-09
-9.02347e-09
1.25147e-09
-9.82826e-09
1.04059e-09
-1.04566e-08
8.05018e-10
-1.08544e-08
4.94226e-10
-1.09263e-08
4.94337e-11
-1.05557e-08
-5.65351e-10
-9.68163e-09
-1.28539e-09
-8.47241e-09
-1.80449e-09
-7.70531e-09
-1.28498e-09
-9.8604e-09
2.64695e-09
2.0943e-08
-2.01975e-08
1.05236e-08
2.4699e-08
3.69133e-09
1.46332e-08
-1.33386e-09
9.20228e-09
-4.96654e-09
6.43562e-09
-7.8808e-09
5.07367e-09
-1.02928e-08
4.16873e-09
-1.23531e-08
3.53735e-09
-1.41268e-08
3.02515e-09
-1.56347e-08
2.54843e-09
-1.68523e-08
2.02266e-09
-1.77027e-08
1.34459e-09
-1.80568e-08
4.03587e-10
-1.77767e-08
-8.4544e-10
-1.68436e-08
-2.21851e-09
-1.562e-08
-3.02809e-09
-1.53319e-08
-1.57314e-09
-1.86564e-08
5.9715e-09
2.96836e-08
-2.73971e-08
1.41646e-08
2.75027e-08
7.02077e-09
2.17771e-08
6.05136e-10
1.56179e-08
-4.47227e-09
1.1513e-08
-8.67843e-09
9.27983e-09
-1.22386e-08
7.72889e-09
-1.53249e-08
6.62365e-09
-1.80199e-08
5.72019e-09
-2.03521e-08
4.88061e-09
-2.22951e-08
3.96568e-09
-2.37626e-08
2.8121e-09
-2.46186e-08
1.25952e-09
-2.47425e-08
-7.21484e-10
-2.41954e-08
-2.76561e-09
-2.3513e-08
-3.71055e-09
-2.40581e-08
-1.02797e-09
-2.786e-08
9.77333e-09
3.65172e-08
-3.46936e-08
1.7529e-08
2.816e-08
1.10862e-08
2.82198e-08
3.99075e-09
2.27134e-08
-2.2516e-09
1.77554e-08
-7.64868e-09
1.46769e-08
-1.23479e-08
1.24281e-08
-1.64981e-08
1.07739e-08
-2.01829e-08
9.40498e-09
-2.3433e-08
8.13075e-09
-2.62248e-08
6.75747e-09
-2.8478e-08
5.06533e-09
-3.00765e-08
2.85797e-09
-3.09472e-08
1.4928e-10
-3.12346e-08
-2.47825e-09
-3.1548e-08
-3.39713e-09
-3.30683e-08
4.92296e-10
-3.69482e-08
1.36533e-08
4.14532e-08
-4.18843e-08
2.0549e-08
2.71025e-08
1.55813e-08
3.31876e-08
8.62992e-09
2.96647e-08
1.71532e-09
2.467e-08
-4.61352e-09
2.10058e-08
-1.03219e-08
1.81364e-08
-1.54834e-08
1.59354e-08
-2.01589e-08
1.40805e-08
-2.43723e-08
1.23441e-08
-2.81054e-08
1.04906e-08
-3.1299e-08
8.25892e-09
-3.38794e-08
5.43837e-09
-3.58368e-08
2.10664e-09
-3.73682e-08
-9.46846e-10
-3.90226e-08
-1.74267e-09
-4.15879e-08
3.05759e-09
-4.53967e-08
1.7462e-08
4.47546e-08
-4.8698e-08
2.31819e-08
2.48112e-08
2.01463e-08
3.62232e-08
1.41534e-08
3.56577e-08
7.23876e-09
3.15846e-08
4.14286e-10
2.78302e-08
-6.02736e-09
2.45781e-08
-1.2027e-08
2.1935e-08
-1.75968e-08
1.96503e-08
-2.27418e-08
1.74891e-08
-2.74491e-08
1.51979e-08
-3.16903e-08
1.25001e-08
-3.5448e-08
9.19608e-09
-3.8774e-08
5.43265e-09
-4.18694e-08
2.14862e-09
-4.51029e-08
1.49081e-09
-4.87828e-08
6.73751e-09
-5.25891e-08
2.12683e-08
4.68644e-08
-5.4699e-08
2.54272e-08
2.17739e-08
2.44343e-08
3.72161e-08
2.00577e-08
4.00343e-08
1.38945e-08
3.77478e-08
7.17347e-09
3.45513e-08
4.35495e-10
3.1316e-08
-6.09084e-09
2.84613e-08
-1.23351e-08
2.58946e-08
-1.82717e-08
2.34257e-08
-2.38902e-08
2.08164e-08
-2.91954e-08
1.78053e-08
-3.42269e-08
1.42276e-08
-3.90822e-08
1.0288e-08
-4.39185e-08
6.98492e-09
-4.88622e-08
6.43458e-09
-5.3754e-08
1.16293e-08
-5.78004e-08
2.53148e-08
4.83494e-08
-5.92854e-08
2.73305e-08
1.84402e-08
2.81767e-08
3.637e-08
2.57925e-08
4.24185e-08
2.10656e-08
4.24746e-08
1.51309e-08
4.04861e-08
8.67414e-09
3.77728e-08
2.0789e-09
3.50566e-08
-4.48452e-09
3.2458e-08
-1.09421e-08
2.98833e-08
-1.72782e-08
2.71525e-08
-2.35269e-08
2.40539e-08
-2.97739e-08
2.04746e-08
-3.61397e-08
1.66537e-08
-4.2709e-08
1.35543e-08
-4.93646e-08
1.30901e-08
-5.55608e-08
1.78255e-08
-6.01875e-08
2.99414e-08
4.98384e-08
-6.16765e-08
2.89712e-08
1.51883e-08
3.12292e-08
3.4112e-08
3.08703e-08
4.27773e-08
2.80438e-08
4.53012e-08
2.35315e-08
4.49983e-08
1.79935e-08
4.33107e-08
1.18993e-08
4.11508e-08
5.50522e-09
3.88521e-08
-1.06528e-09
3.64538e-08
-7.7789e-09
3.38661e-08
-1.46814e-08
3.09565e-08
-2.1887e-08
2.76802e-08
-2.95196e-08
2.42863e-08
-3.7588e-08
2.16227e-08
-4.57809e-08
2.1283e-08
-5.32887e-08
2.53333e-08
-5.88153e-08
3.5468e-08
5.19337e-08
-6.09106e-08
3.04889e-08
1.22647e-08
3.35812e-08
3.10196e-08
3.49597e-08
4.13988e-08
3.41777e-08
4.60833e-08
3.15251e-08
4.76509e-08
2.74753e-08
4.73605e-08
2.24753e-08
4.61509e-08
1.68167e-08
4.45107e-08
1.06586e-08
4.2612e-08
4.0527e-09
4.04719e-08
-3.04483e-09
3.8054e-08
-1.07466e-08
3.53819e-08
-1.91625e-08
3.27022e-08
-2.82435e-08
3.07037e-08
-3.75666e-08
3.06061e-08
-4.61956e-08
3.39624e-08
-5.27673e-08
4.20397e-08
5.50739e-08
-5.59076e-08
2.71443e-08
9.93647e-09
2.97962e-08
2.83677e-08
3.19001e-08
3.92949e-08
3.26873e-08
4.5296e-08
3.19765e-08
4.83617e-08
2.99765e-08
4.93605e-08
2.69723e-08
4.9155e-08
2.31805e-08
4.83025e-08
1.8733e-08
4.70595e-08
1.36806e-08
4.55243e-08
7.99749e-09
4.37371e-08
1.60298e-09
4.17764e-08
-5.57699e-09
3.98822e-08
-1.34727e-08
3.85994e-08
-2.17069e-08
3.88403e-08
-2.94946e-08
4.17501e-08
-3.57286e-08
4.82737e-08
5.8652e-08
-3.93067e-08
3.23276e-08
7.86002e-09
3.55159e-08
2.51794e-08
3.8609e-08
3.62018e-08
4.07797e-08
4.31253e-08
4.15863e-08
4.75551e-08
4.09935e-08
4.99533e-08
3.91674e-08
5.09811e-08
3.6278e-08
5.11919e-08
3.24408e-08
5.08968e-08
2.77038e-08
5.02613e-08
2.20466e-08
4.93943e-08
1.54023e-08
4.84207e-08
7.72217e-09
4.75623e-08
-8.98847e-10
4.72204e-08
-1.00632e-08
4.80047e-08
-1.89611e-08
5.06479e-08
-2.6456e-08
5.57687e-08
6.35882e-08
-3.13922e-08
3.8538e-08
6.19857e-09
4.20539e-08
2.16635e-08
4.59436e-08
3.2312e-08
4.94559e-08
3.9613e-08
5.20225e-08
4.49885e-08
5.33441e-08
4.86316e-08
5.33907e-08
5.09345e-08
5.22184e-08
5.23643e-08
4.98776e-08
5.32376e-08
4.63857e-08
5.37532e-08
4.17194e-08
5.40606e-08
3.58321e-08
5.4308e-08
2.87092e-08
5.46853e-08
2.04698e-08
5.54598e-08
1.14916e-08
5.69829e-08
2.49602e-09
5.96435e-08
-5.49666e-09
6.37613e-08
6.94812e-08
-1.13896e-08
4.61569e-08
4.99463e-09
4.96227e-08
1.81977e-08
5.39391e-08
2.79956e-08
5.84494e-08
3.51027e-08
6.26196e-08
4.08184e-08
6.59905e-08
4.52607e-08
6.83334e-08
4.85917e-08
6.95555e-08
5.11422e-08
6.96064e-08
5.31866e-08
6.84452e-08
5.49144e-08
6.60313e-08
5.64744e-08
6.23349e-08
5.80044e-08
5.73739e-08
5.96463e-08
5.12789e-08
6.15548e-08
4.43686e-08
6.38931e-08
3.72019e-08
6.68102e-08
3.05544e-08
7.04088e-08
7.47422e-08
2.52935e-08
5.55899e-08
4.20303e-09
5.87133e-08
1.50743e-08
6.30847e-08
2.36243e-08
6.81147e-08
3.00727e-08
7.34e-08
3.55331e-08
7.84856e-08
4.01752e-08
8.30362e-08
4.40411e-08
8.68482e-08
4.73301e-08
8.97872e-08
5.02476e-08
9.17596e-08
5.29421e-08
9.27064e-08
5.55276e-08
9.26092e-08
5.81016e-08
9.15067e-08
6.07488e-08
8.95239e-08
6.35376e-08
8.6902e-08
6.6515e-08
8.40147e-08
6.96975e-08
8.13515e-08
7.3072e-08
7.66294e-08
7.94644e-08
6.73133e-08
3.68966e-09
7.00708e-08
1.23168e-08
7.44006e-08
1.92944e-08
7.97295e-08
2.47438e-08
8.57449e-08
2.95176e-08
9.2093e-08
3.38271e-08
9.84475e-08
3.76865e-08
1.04576e-07
4.12015e-08
1.10323e-07
4.45008e-08
1.15588e-07
4.76772e-08
1.20321e-07
5.07946e-08
1.24522e-07
5.39002e-08
1.28246e-07
5.70254e-08
1.31601e-07
6.01818e-08
1.34758e-07
6.33579e-08
1.37937e-07
6.65186e-08
1.41396e-07
6.96137e-08
7.26187e-08
1.45406e-07
8.18351e-08
3.28452e-09
8.46304e-08
9.5215e-09
8.94061e-08
1.45187e-08
9.54948e-08
1.86552e-08
1.02558e-07
2.24543e-08
1.10315e-07
2.607e-08
1.1848e-07
2.9522e-08
1.26831e-07
3.28503e-08
1.35232e-07
3.60994e-08
1.43615e-07
3.92949e-08
1.51962e-07
4.24471e-08
1.60305e-07
4.55576e-08
1.68711e-07
4.86188e-08
1.77281e-07
5.16119e-08
1.86133e-07
5.45062e-08
1.95392e-07
5.726e-08
2.05175e-07
5.98298e-08
6.22029e-08
2.15591e-07
9.97828e-08
2.76594e-09
1.03767e-07
5.53779e-09
1.10496e-07
7.78924e-09
1.18926e-07
1.02252e-08
1.28598e-07
1.27827e-08
1.39184e-07
1.54836e-08
1.50353e-07
1.83532e-08
1.61858e-07
2.13451e-08
1.7357e-07
2.43871e-08
1.85447e-07
2.74187e-08
1.97499e-07
3.03952e-08
2.09776e-07
3.32797e-08
2.22356e-07
3.60391e-08
2.35326e-07
3.86418e-08
2.48776e-07
4.10568e-08
2.62782e-07
4.32541e-08
2.77402e-07
4.52096e-08
4.69251e-08
2.9268e-07
7.38807e-08
1.55337e-09
7.82525e-08
1.16597e-09
8.50149e-08
1.02678e-09
9.32046e-08
2.03561e-09
1.02213e-07
3.77407e-09
1.11651e-07
6.04532e-09
1.21253e-07
8.75111e-09
1.30872e-07
1.17263e-08
1.40457e-07
1.48023e-08
1.50015e-07
1.78603e-08
1.59587e-07
2.08233e-08
1.69228e-07
2.36386e-08
1.79001e-07
2.62669e-08
1.88964e-07
2.86787e-08
1.9917e-07
3.0851e-08
2.09657e-07
3.27661e-08
2.20453e-07
3.44143e-08
3.5805e-08
2.31573e-07
6.53514e-08
-5.36826e-10
7.13026e-08
-4.78522e-09
7.94504e-08
-7.12099e-09
8.85358e-08
-7.04976e-09
9.78855e-08
-5.57561e-09
1.07123e-07
-3.19216e-09
1.16079e-07
-2.05136e-10
1.24737e-07
3.06802e-09
1.33156e-07
6.38427e-09
1.41416e-07
9.60023e-09
1.49602e-07
1.26367e-08
1.57794e-07
1.54472e-08
1.66056e-07
1.80044e-08
1.74442e-07
2.02926e-08
1.8299e-07
2.23031e-08
1.91724e-07
2.40325e-08
2.00654e-07
2.54835e-08
2.66717e-08
2.09788e-07
5.84633e-08
-3.92799e-09
6.6074e-08
-1.2396e-08
7.49464e-08
-1.59934e-08
8.3694e-08
-1.57973e-08
9.18263e-08
-1.3708e-08
9.92256e-08
-1.05915e-08
1.05996e-07
-6.97504e-09
1.12332e-07
-3.26828e-09
1.18427e-07
2.89049e-10
1.24433e-07
3.59417e-09
1.30462e-07
6.60736e-09
1.36596e-07
9.31411e-09
1.42885e-07
1.17151e-08
1.49361e-07
1.38164e-08
1.56037e-07
1.5627e-08
1.62912e-07
1.71572e-08
1.69976e-07
1.84199e-08
1.94341e-08
1.77214e-07
5.28305e-08
-8.81542e-09
6.10684e-08
-2.06339e-08
6.87148e-08
-2.36399e-08
7.48558e-08
-2.19382e-08
7.96315e-08
-1.84837e-08
8.34395e-08
-1.43995e-08
8.67217e-08
-1.02572e-08
8.98369e-08
-6.3835e-09
9.302e-08
-2.8941e-09
9.64104e-08
2.03779e-10
1.00084e-07
2.93398e-09
1.04074e-07
5.32358e-09
1.0839e-07
7.39923e-09
1.13021e-07
9.18592e-09
1.17942e-07
1.07051e-08
1.23124e-07
1.19755e-08
1.28529e-07
1.30147e-08
1.38415e-08
1.34122e-07
4.76782e-08
-1.47568e-08
5.44325e-08
-2.73881e-08
5.84024e-08
-2.76098e-08
6.00159e-08
-2.35517e-08
6.03206e-08
-1.87884e-08
6.01437e-08
-1.42226e-08
6.00321e-08
-1.01456e-08
6.02865e-08
-6.63788e-09
6.10381e-08
-3.64569e-09
6.23267e-08
-1.0849e-09
6.41465e-08
1.1142e-09
6.64666e-08
3.0035e-09
6.9243e-08
4.62286e-09
7.24257e-08
6.00318e-09
7.59621e-08
7.16877e-09
7.97981e-08
8.13941e-09
8.38804e-08
8.93246e-09
9.56182e-09
8.816e-08
4.21665e-08
-2.05892e-08
4.50945e-08
-3.03161e-08
4.39807e-08
-2.6496e-08
4.09738e-08
-2.05448e-08
3.76369e-08
-1.54515e-08
3.47233e-08
-1.13091e-08
3.25381e-08
-7.96027e-09
3.11541e-08
-5.2539e-09
3.05409e-08
-3.03256e-09
3.06336e-08
-1.1776e-09
3.13585e-08
3.89372e-10
3.26417e-08
1.7203e-09
3.44112e-08
2.85336e-09
3.6599e-08
3.8153e-09
3.91417e-08
4.62611e-09
4.19791e-08
5.30201e-09
4.50546e-08
5.85693e-09
6.29842e-09
4.8318e-08
3.5746e-08
-2.47046e-08
3.3562e-08
-2.81321e-08
2.80165e-08
-2.09504e-08
2.21957e-08
-1.4724e-08
1.72543e-08
-1.05101e-08
1.34194e-08
-7.47417e-09
1.06433e-08
-5.18418e-09
8.7994e-09
-3.41002e-09
7.75559e-09
-1.98875e-09
7.39707e-09
-8.19079e-10
7.62615e-09
1.60287e-10
8.35871e-09
9.87742e-10
9.5215e-09
1.69057e-09
1.10495e-08
2.28728e-09
1.28845e-08
2.79111e-09
1.49735e-08
3.21303e-09
1.72674e-08
3.56302e-09
3.84371e-09
1.97221e-08
2.83866e-08
-2.55551e-08
2.16533e-08
-2.13988e-08
1.39907e-08
-1.32879e-08
7.77462e-09
-8.50794e-09
3.09737e-09
-5.83283e-09
-3.21208e-10
-4.05558e-09
-2.72996e-09
-2.77543e-09
-4.32937e-09
-1.81061e-09
-5.26965e-09
-1.04846e-09
-5.66302e-09
-4.25717e-10
-5.5967e-09
9.39749e-11
-5.14167e-09
5.32707e-10
-4.35673e-09
9.05628e-10
-3.29254e-09
1.2231e-09
-1.99373e-09
1.49229e-09
-5.00079e-10
1.71938e-09
1.15222e-09
1.91072e-09
2.06722e-09
2.92871e-09
2.04782e-08
-2.20617e-08
1.14222e-08
-1.23429e-08
4.31509e-09
-6.18076e-09
-5.37818e-10
-3.65503e-09
-3.93771e-09
-2.43294e-09
-6.33264e-09
-1.66065e-09
-7.98551e-09
-1.12256e-09
-9.07203e-09
-7.24092e-10
-9.70905e-09
-4.11445e-10
-9.97826e-09
-1.56507e-10
-9.94078e-09
5.64992e-11
-9.64472e-09
2.36643e-10
-9.12949e-09
3.90403e-10
-8.42827e-09
5.21871e-10
-7.57001e-09
6.34033e-10
-6.58009e-09
7.2946e-10
-5.48121e-09
8.11845e-10
8.83184e-10
-4.29717e-09
1.24762e-08
-1.36695e-08
4.19082e-09
-4.05749e-09
-4.38213e-10
-1.55173e-09
-3.23588e-09
-8.57359e-10
-5.11557e-09
-5.53253e-10
-6.40544e-09
-3.70784e-10
-7.28059e-09
-2.47407e-10
-7.84769e-09
-1.56988e-10
-8.17298e-09
-8.61596e-11
-8.30122e-09
-2.82714e-11
-8.2651e-09
2.03881e-11
-8.0902e-09
6.17343e-11
-7.79704e-09
9.72478e-11
-7.40298e-09
1.27807e-10
-6.92303e-09
1.54091e-10
-6.37023e-09
1.76652e-10
-5.75534e-09
1.96958e-10
2.17423e-10
-5.08958e-09
4.4975e-09
4.40009e-10
-1.11172e-09
-1.96908e-09
-2.52233e-09
-2.89311e-09
-3.14052e-09
-3.29751e-09
-3.38367e-09
-3.41194e-09
-3.39155e-09
-3.32982e-09
-3.23257e-09
-3.10476e-09
-2.95067e-09
-2.77402e-09
-2.57706e-09
-2.35964e-09
2.16848e-10
-2.16848e-10
1.06793e-09
-8.51078e-10
2.53163e-09
-1.46371e-09
4.47128e-09
-1.93964e-09
6.72034e-09
-2.24907e-09
9.11144e-09
-2.3911e-09
1.14918e-08
-2.38038e-09
1.37328e-08
-2.241e-09
1.57349e-08
-2.00204e-09
1.7429e-08
-1.6941e-09
1.87756e-08
-1.3466e-09
1.97614e-08
-9.85822e-10
2.03949e-08
-6.33547e-10
2.07011e-08
-3.06206e-10
2.07151e-08
-1.39919e-11
2.04767e-08
2.3845e-10
2.00238e-08
4.52855e-10
1.93879e-08
6.35883e-10
1.85893e-08
7.98592e-10
1.76341e-08
9.55202e-10
1.65126e-08
1.12158e-09
1.51985e-08
1.31407e-09
1.36509e-08
1.54762e-09
1.18167e-08
1.83419e-09
9.63438e-09
2.1823e-09
7.03715e-09
2.59723e-09
3.95667e-09
3.08049e-09
3.26526e-10
3.63014e-09
-3.91689e-09
4.24341e-09
-8.83128e-09
4.9144e-09
-1.44642e-08
5.63294e-09
-2.08523e-08
6.38812e-09
-2.80191e-08
7.16676e-09
-3.59724e-08
7.95332e-09
-4.47026e-08
8.73021e-09
-5.41808e-08
9.47813e-09
-6.43575e-08
1.01767e-08
-7.51627e-08
1.08052e-08
-8.65061e-08
1.13435e-08
-9.82788e-08
1.17727e-08
-1.10355e-07
1.20764e-08
-1.22596e-07
1.2241e-08
-1.34853e-07
1.22568e-08
-1.46971e-07
1.21178e-08
-1.58793e-07
1.18223e-08
-1.70166e-07
1.13728e-08
-1.80941e-07
1.07753e-08
-1.9098e-07
1.00392e-08
-2.00157e-07
9.17674e-09
-2.08359e-07
8.20188e-09
-2.15489e-07
7.13001e-09
-2.21466e-07
5.97721e-09
-2.26226e-07
4.76026e-09
-2.29723e-07
3.49668e-09
-2.31925e-07
2.20251e-09
-2.32815e-07
8.89602e-10
-2.32388e-07
-4.27068e-10
-2.30664e-07
-1.72366e-09
-2.27683e-07
-2.9812e-09
-2.23498e-07
-4.18566e-09
-2.18175e-07
-5.32294e-09
-2.11795e-07
-6.37934e-09
-2.04453e-07
-7.34183e-09
-1.96255e-07
-8.19835e-09
-1.87317e-07
-8.93815e-09
-1.77765e-07
-9.5523e-09
-1.67731e-07
-1.00341e-08
-1.57351e-07
-1.03793e-08
-1.46764e-07
-1.05868e-08
-1.36106e-07
-1.06584e-08
-1.25507e-07
-1.05991e-08
-1.1509e-07
-1.04167e-08
-1.04969e-07
-1.01217e-08
-9.52419e-08
-9.72674e-09
-8.59957e-08
-9.2462e-09
-7.73003e-08
-8.6954e-09
-6.92101e-08
-8.09012e-09
-6.17641e-08
-7.44602e-09
-5.4986e-08
-6.77812e-09
-4.88857e-08
-6.10036e-09
-4.34603e-08
-5.42532e-09
-3.86964e-08
-4.76396e-09
-3.45709e-08
-4.12552e-09
-3.10534e-08
-3.51748e-09
-2.81078e-08
-2.94558e-09
-2.56938e-08
-2.41396e-09
-2.37686e-08
-1.92526e-09
-2.22877e-08
-1.48085e-09
-2.12068e-08
-1.08095e-09
-2.04819e-08
-7.24872e-10
-2.00707e-08
-4.11216e-10
-1.99327e-08
-1.38019e-10
-2.00299e-08
9.7247e-11
-2.03271e-08
2.97213e-10
-2.07922e-08
4.65051e-10
-2.13959e-08
6.03733e-10
-2.2112e-08
7.16067e-10
-2.29167e-08
8.04767e-10
-2.37892e-08
8.7243e-10
-2.47107e-08
9.21494e-10
-2.56649e-08
9.54214e-10
-2.66375e-08
9.72656e-10
-2.76162e-08
9.78708e-10
-2.85903e-08
9.74076e-10
-2.95506e-08
9.60307e-10
-3.04894e-08
9.38786e-10
-3.14002e-08
9.10759e-10
-3.22775e-08
8.77346e-10
-3.31171e-08
8.39556e-10
-3.39154e-08
7.9829e-10
-3.46697e-08
7.54352e-10
-3.53782e-08
7.08464e-10
-3.60395e-08
6.61271e-10
-3.66528e-08
6.1334e-10
-3.7218e-08
5.65174e-10
-3.77352e-08
5.17223e-10
-3.82051e-08
4.6988e-10
-3.86286e-08
4.23484e-10
-3.90069e-08
3.7833e-10
-3.93416e-08
3.34673e-10
-3.96343e-08
2.92736e-10
-3.9887e-08
2.52704e-10
-4.01017e-08
2.14726e-10
-4.02806e-08
1.78909e-10
-4.0426e-08
1.45329e-10
-4.054e-08
1.14025e-10
-4.0625e-08
8.50067e-11
-4.06832e-08
5.82586e-11
-4.0717e-08
3.37237e-11
-4.07288e-08
1.18016e-11
-4.0721e-08
-7.79417e-12
-4.0694e-08
-2.69435e-11
-4.0651e-08
-4.29988e-11
-4.05938e-08
-5.71954e-11
-4.05241e-08
-6.97901e-11
-4.04432e-08
-8.08447e-11
-4.03528e-08
-9.04472e-11
-4.0254e-08
-9.8735e-11
-4.01482e-08
-1.05829e-10
-4.00363e-08
-1.11852e-10
-3.99194e-08
-1.16911e-10
-3.97983e-08
-1.21122e-10
-3.96737e-08
-1.24586e-10
-3.95463e-08
-1.27393e-10
-3.94167e-08
-1.2963e-10
-3.92853e-08
-1.31377e-10
-3.91526e-08
-1.32713e-10
-3.90189e-08
-1.33707e-10
-3.88845e-08
-1.34419e-10
-3.87496e-08
-1.34902e-10
-3.86144e-08
-1.35201e-10
-3.8479e-08
-1.35366e-10
-3.83436e-08
-1.35436e-10
-3.82081e-08
-1.35445e-10
-3.80727e-08
-1.35422e-10
-3.79373e-08
-1.35391e-10
-3.78019e-08
-1.35377e-10
-3.76666e-08
-1.35399e-10
-3.75311e-08
-1.35476e-10
-3.73955e-08
-1.35624e-10
-3.72596e-08
-1.35862e-10
-3.71234e-08
-1.36211e-10
-3.69867e-08
-1.36698e-10
-3.68493e-08
-1.37355e-10
-3.67111e-08
-1.38219e-10
-3.65718e-08
-1.3933e-10
-3.6431e-08
-1.40735e-10
-3.62885e-08
-1.42499e-10
-3.61438e-08
-1.44707e-10
-3.59964e-08
-1.4744e-10
-3.58456e-08
-1.50774e-10
-3.56909e-08
-1.54738e-10
-3.55317e-08
-1.59156e-10
-3.53683e-08
-1.63444e-10
-3.52012e-08
-1.67044e-10
-3.50282e-08
-1.73018e-10
-3.48261e-08
-2.02124e-10
-3.44954e-08
-3.3072e-10
-3.36473e-08
-8.48091e-10
-3.0997e-09
-3.05476e-08
8.39515e-10
-1.05636e-09
3.02643e-09
-3.038e-09
6.27692e-09
-4.71419e-09
1.0296e-08
-5.95872e-09
1.47775e-08
-6.73062e-09
1.94268e-08
-7.04036e-09
2.39769e-08
-6.9305e-09
2.81996e-08
-6.46367e-09
3.19108e-08
-5.71319e-09
3.49722e-08
-4.75554e-09
3.729e-08
-3.6644e-09
3.88103e-08
-2.50612e-09
3.95132e-08
-1.33646e-09
3.94052e-08
-1.98216e-10
3.85096e-08
8.81645e-10
3.68571e-08
1.89099e-09
3.44765e-08
2.83341e-09
3.13855e-08
3.72691e-09
2.7582e-08
4.60205e-09
2.3039e-08
5.49823e-09
1.77018e-08
6.45878e-09
1.14871e-08
7.52881e-09
4.28708e-09
8.74759e-09
-4.02465e-09
1.01459e-08
-1.35858e-08
1.17434e-08
-2.45338e-08
1.35453e-08
-3.69965e-08
1.55432e-08
-5.10835e-08
1.77171e-08
-6.68755e-08
2.00354e-08
-8.44172e-08
2.24561e-08
-1.03712e-07
2.49275e-08
-1.24713e-07
2.73898e-08
-1.47323e-07
2.97768e-08
-1.71389e-07
3.20187e-08
-1.96704e-07
3.40449e-08
-2.23013e-07
3.57878e-08
-2.50023e-07
3.71862e-08
-2.77406e-07
3.81882e-08
-3.04816e-07
3.87542e-08
-3.31902e-07
3.88579e-08
-3.58313e-07
3.84873e-08
-3.83715e-07
3.76437e-08
-4.078e-07
3.63414e-08
-4.30287e-07
3.46053e-08
-4.50934e-07
3.24692e-08
-4.69535e-07
2.99738e-08
-4.85924e-07
2.7164e-08
-4.99972e-07
2.40875e-08
-5.11588e-07
2.07925e-08
-5.20713e-07
1.73269e-08
-5.2732e-07
1.37367e-08
-5.31408e-07
1.00658e-08
-5.33003e-07
6.35447e-09
-5.32146e-07
2.63983e-09
-5.28903e-07
-1.03983e-09
-5.23377e-07
-4.63708e-09
-5.15686e-07
-8.11834e-09
-5.05948e-07
-1.14614e-08
-4.94288e-07
-1.46408e-08
-4.80843e-07
-1.76308e-08
-4.6576e-07
-2.04059e-08
-4.49198e-07
-2.29412e-08
-4.31327e-07
-2.52126e-08
-4.12328e-07
-2.71978e-08
-3.92389e-07
-2.88769e-08
-3.71708e-07
-3.02334e-08
-3.50487e-07
-3.12554e-08
-3.2893e-07
-3.19362e-08
-3.07242e-07
-3.2275e-08
-2.85622e-07
-3.22777e-08
-2.64265e-07
-3.19564e-08
-2.43352e-07
-3.13296e-08
-2.23053e-07
-3.04213e-08
-2.03519e-07
-2.92605e-08
-1.84885e-07
-2.78798e-08
-1.67266e-07
-2.63146e-08
-1.50754e-07
-2.46017e-08
-1.35423e-07
-2.27778e-08
-1.21322e-07
-2.08793e-08
-1.08481e-07
-1.89404e-08
-9.69135e-08
-1.69932e-08
-8.66109e-08
-1.50666e-08
-7.75506e-08
-1.31859e-08
-6.96952e-08
-1.13729e-08
-6.29952e-08
-9.64553e-09
-5.73911e-08
-8.01805e-09
-5.28154e-08
-6.50104e-09
-4.91945e-08
-5.10176e-09
-4.6451e-08
-3.82437e-09
-4.45055e-08
-2.67037e-09
-4.32779e-08
-1.6389e-09
-4.26887e-08
-7.27149e-10
-4.26615e-08
6.99957e-11
-4.31218e-08
7.57512e-10
-4.39998e-08
1.34304e-09
-4.52306e-08
1.83458e-09
-4.67541e-08
2.23952e-09
-4.85148e-08
2.56551e-09
-5.04626e-08
2.82017e-09
-5.25519e-08
3.01089e-09
-5.47424e-08
3.1447e-09
-5.6998e-08
3.22825e-09
-5.92871e-08
3.26775e-09
-6.15819e-08
3.26892e-09
-6.38587e-08
3.23705e-09
-6.60968e-08
3.17696e-09
-6.82791e-08
3.09303e-09
-7.0391e-08
2.98923e-09
-7.24206e-08
2.86918e-09
-7.43584e-08
2.73611e-09
-7.6197e-08
2.59291e-09
-7.79307e-08
2.4422e-09
-7.95558e-08
2.2863e-09
-8.10697e-08
2.12725e-09
-8.24714e-08
1.96688e-09
-8.37609e-08
1.8068e-09
-8.49395e-08
1.64843e-09
-8.6009e-08
1.49299e-09
-8.69722e-08
1.34153e-09
-8.78325e-08
1.19496e-09
-8.85938e-08
1.05405e-09
-8.92605e-08
9.19453e-10
-8.98375e-08
7.91672e-10
-9.03297e-08
6.71086e-10
-9.07423e-08
5.57958e-10
-9.10807e-08
4.52443e-10
-9.13503e-08
3.54602e-10
-9.15564e-08
2.64398e-10
-9.17045e-08
1.81744e-10
-9.17993e-08
1.06643e-10
-9.18459e-08
3.87639e-11
-9.185e-08
-2.28085e-11
-9.1815e-08
-7.79559e-11
-9.17459e-08
-1.26347e-10
-9.16464e-08
-1.69302e-10
-9.15202e-08
-2.07018e-10
-9.13708e-08
-2.39829e-10
-9.12014e-08
-2.68192e-10
-9.10147e-08
-2.92517e-10
-9.08133e-08
-3.13214e-10
-9.05996e-08
-3.30648e-10
-9.03755e-08
-3.45203e-10
-9.01429e-08
-3.57231e-10
-8.99032e-08
-3.67041e-10
-8.96579e-08
-3.74934e-10
-8.94081e-08
-3.81178e-10
-8.91548e-08
-3.86032e-10
-8.88988e-08
-3.89722e-10
-8.86407e-08
-3.92447e-10
-8.83813e-08
-3.9438e-10
-8.81208e-08
-3.95678e-10
-8.78597e-08
-3.96492e-10
-8.75981e-08
-3.96952e-10
-8.73364e-08
-3.97173e-10
-8.70746e-08
-3.97248e-10
-8.68127e-08
-3.97262e-10
-8.65508e-08
-3.9729e-10
-8.62888e-08
-3.97403e-10
-8.60266e-08
-3.97666e-10
-8.57641e-08
-3.98139e-10
-8.55011e-08
-3.98891e-10
-8.52373e-08
-3.99997e-10
-8.49724e-08
-4.01557e-10
-8.47061e-08
-4.03689e-10
-8.44378e-08
-4.06531e-10
-8.41669e-08
-4.10252e-10
-8.38925e-08
-4.15059e-10
-8.36138e-08
-4.21233e-10
-8.33294e-08
-4.29147e-10
-8.30376e-08
-4.39246e-10
-8.27363e-08
-4.52038e-10
-8.2423e-08
-4.68061e-10
-8.20944e-08
-4.87705e-10
-8.17466e-08
-5.11225e-10
-8.13735e-08
-5.40165e-10
-8.09589e-08
-5.8759e-10
-8.04289e-08
-7.32126e-10
-7.95314e-08
-1.22825e-09
-7.77526e-08
-2.62691e-09
-6.86058e-09
-7.39917e-08
1.13459e-09
-2.19096e-09
3.95094e-09
-5.85435e-09
7.9583e-09
-8.72154e-09
1.27253e-08
-1.07258e-08
1.78626e-08
-1.18679e-08
2.30226e-08
-1.22004e-08
2.79034e-08
-1.18113e-08
3.22507e-08
-1.0811e-08
3.58578e-08
-9.32029e-09
3.8563e-08
-7.46067e-09
4.02455e-08
-5.34692e-09
4.08206e-08
-3.08121e-09
4.0233e-08
-7.4884e-10
3.84475e-08
1.5872e-09
3.5442e-08
3.88718e-09
3.11968e-08
6.13619e-09
2.56864e-08
8.34381e-09
1.88701e-08
1.05433e-08
1.06835e-08
1.27886e-08
1.03533e-09
1.51464e-08
-1.01942e-08
1.76883e-08
-2.31474e-08
2.0482e-08
-3.79788e-08
2.3579e-08
-5.48424e-08
2.70095e-08
-7.38755e-08
3.07765e-08
-9.51843e-08
3.4854e-08
-1.18828e-07
3.9187e-08
-1.44805e-07
4.36943e-08
-1.73042e-07
4.82725e-08
-2.03387e-07
5.28008e-08
-2.35607e-07
5.71471e-08
-2.69392e-07
6.11748e-08
-3.04365e-07
6.47501e-08
-3.40096e-07
6.77497e-08
-3.76118e-07
7.0067e-08
-4.11948e-07
7.1618e-08
-4.47106e-07
7.2344e-08
-4.81132e-07
7.22141e-08
-5.13602e-07
7.1224e-08
-5.44139e-07
6.93947e-08
-5.7242e-07
6.67686e-08
-5.98182e-07
6.3406e-08
-6.21221e-07
5.93801e-08
-6.41389e-07
5.47732e-08
-6.58592e-07
4.96722e-08
-6.72783e-07
4.41649e-08
-6.83956e-07
3.83376e-08
-6.92141e-07
3.22721e-08
-6.97394e-07
2.60451e-08
-6.99794e-07
1.97268e-08
-6.99437e-07
1.33804e-08
-6.96434e-07
7.0624e-09
-6.90902e-07
8.22738e-10
-6.82989e-07
-5.27355e-09
-6.72838e-07
-1.11907e-08
-6.60573e-07
-1.69019e-08
-6.46312e-07
-2.23795e-08
-6.30182e-07
-2.75918e-08
-6.12316e-07
-3.25069e-08
-5.92854e-07
-3.70923e-08
-5.71945e-07
-4.13148e-08
-5.49745e-07
-4.51412e-08
-5.2642e-07
-4.85383e-08
-5.02143e-07
-5.14749e-08
-4.77097e-07
-5.39228e-08
-4.51472e-07
-5.58584e-08
-4.25463e-07
-5.72644e-08
-3.99267e-07
-5.81315e-08
-3.73083e-07
-5.84589e-08
-3.47105e-07
-5.82557e-08
-3.21521e-07
-5.75404e-08
-2.9651e-07
-5.63409e-08
-2.72238e-07
-5.46937e-08
-2.48856e-07
-5.26423e-08
-2.265e-07
-5.0236e-08
-2.05286e-07
-4.7528e-08
-1.85314e-07
-4.45739e-08
-1.66662e-07
-4.14299e-08
-1.4939e-07
-3.81512e-08
-1.33539e-07
-3.47912e-08
-1.19132e-07
-3.14e-08
-1.06175e-07
-2.80239e-08
-9.46565e-08
-2.47045e-08
-8.45506e-08
-2.14788e-08
-7.58178e-08
-1.83783e-08
-6.84065e-08
-1.54294e-08
-6.22542e-08
-1.26533e-08
-5.72898e-08
-1.00662e-08
-5.34346e-08
-7.67949e-09
-5.0605e-08
-5.49999e-09
-4.87134e-08
-3.53056e-09
-4.76702e-08
-1.77033e-09
-4.73854e-08
-2.14825e-10
-4.77706e-08
1.14281e-09
-4.87388e-08
2.31116e-09
-5.02077e-08
3.30348e-09
-5.20991e-08
4.13096e-09
-5.43398e-08
4.80624e-09
-5.6862e-08
5.34234e-09
-5.96034e-08
5.75228e-09
-6.25075e-08
6.04885e-09
-6.55236e-08
6.24437e-09
-6.86065e-08
6.35062e-09
-7.17163e-08
6.37868e-09
-7.48181e-08
6.33889e-09
-7.7882e-08
6.24084e-09
-8.08823e-08
6.0933e-09
-8.37974e-08
5.90432e-09
-8.66094e-08
5.68125e-09
-8.9304e-08
5.43071e-09
-9.18697e-08
5.15863e-09
-9.42979e-08
4.87037e-09
-9.65823e-08
4.57071e-09
-9.87189e-08
4.26387e-09
-1.00706e-07
3.9536e-09
-1.02542e-07
3.6432e-09
-1.04229e-07
3.33561e-09
-1.0577e-07
3.03331e-09
-1.07167e-07
2.73847e-09
-1.08424e-07
2.45294e-09
-1.09549e-07
2.1783e-09
-1.10545e-07
1.91584e-09
-1.1142e-07
1.66659e-09
-1.1218e-07
1.4313e-09
-1.12833e-07
1.21052e-09
-1.13385e-07
1.00455e-09
-1.13844e-07
8.13537e-10
-1.14217e-07
6.37419e-10
-1.14511e-07
4.76014e-10
-1.14734e-07
3.29053e-10
-1.14891e-07
1.96017e-10
-1.1499e-07
7.63248e-11
-1.15036e-07
-3.19912e-11
-1.15036e-07
-1.26399e-10
-1.14994e-07
-2.1074e-10
-1.14917e-07
-2.84766e-10
-1.14807e-07
-3.49222e-10
-1.1467e-07
-4.05022e-10
-1.1451e-07
-4.52952e-10
-1.14329e-07
-4.93813e-10
-1.14132e-07
-5.2829e-10
-1.1392e-07
-5.57151e-10
-1.13696e-07
-5.81071e-10
-1.13462e-07
-6.00649e-10
-1.13221e-07
-6.16474e-10
-1.12973e-07
-6.29061e-10
-1.1272e-07
-6.38913e-10
-1.12463e-07
-6.46468e-10
-1.12204e-07
-6.52105e-10
-1.11942e-07
-6.56158e-10
-1.11679e-07
-6.58928e-10
-1.11414e-07
-6.60709e-10
-1.1115e-07
-6.61754e-10
-1.10885e-07
-6.62274e-10
-1.10619e-07
-6.62455e-10
-1.10354e-07
-6.62461e-10
-1.10089e-07
-6.62438e-10
-1.09824e-07
-6.62525e-10
-1.09559e-07
-6.6285e-10
-1.09293e-07
-6.63532e-10
-1.09027e-07
-6.64707e-10
-1.08761e-07
-6.66536e-10
-1.08493e-07
-6.69213e-10
-1.08224e-07
-6.72984e-10
-1.07952e-07
-6.78144e-10
-1.07678e-07
-6.85055e-10
-1.07398e-07
-6.9418e-10
-1.07114e-07
-7.06149e-10
-1.06821e-07
-7.21835e-10
-1.06518e-07
-7.42327e-10
-1.06201e-07
-7.69002e-10
-1.05865e-07
-8.03633e-10
-1.05504e-07
-8.48449e-10
-1.05109e-07
-9.06896e-10
-1.04662e-07
-9.87089e-10
-1.04129e-07
-1.12094e-09
-1.03411e-07
-1.44914e-09
-1.02276e-07
-2.36376e-09
-1.00364e-07
-4.53927e-09
-9.82179e-09
-9.74024e-08
1.17872e-09
-3.36968e-09
4.02402e-09
-8.69964e-09
7.94237e-09
-1.26399e-08
1.2426e-08
-1.52094e-08
1.70433e-08
-1.64852e-08
2.14315e-08
-1.65885e-08
2.52892e-08
-1.5669e-08
2.83696e-08
-1.38914e-08
3.04721e-08
-1.14228e-08
3.1435e-08
-8.42358e-09
3.1128e-08
-5.03994e-09
2.94455e-08
-1.39871e-09
2.6297e-08
2.39968e-09
2.16024e-08
6.2818e-09
1.52839e-08
1.02057e-08
7.25767e-09
1.41624e-08
-2.57343e-09
1.81749e-08
-1.43255e-08
2.22953e-08
-2.8134e-08
2.65971e-08
-4.415e-08
3.11623e-08
-6.25301e-08
3.60685e-08
-8.34215e-08
4.13734e-08
-1.06944e-07
4.71013e-08
-1.33168e-07
5.32338e-08
-1.62098e-07
5.97062e-08
-1.93652e-07
6.6408e-08
-2.27654e-07
7.31893e-08
-2.6383e-07
7.98699e-08
-3.01808e-07
8.6251e-08
-3.41135e-07
9.21281e-08
-3.81292e-07
9.73034e-08
-4.21715e-07
1.01598e-07
-4.61828e-07
1.04863e-07
-5.01062e-07
1.06984e-07
-5.38884e-07
1.07889e-07
-5.74813e-07
1.07547e-07
-6.08437e-07
1.05968e-07
-6.39421e-07
1.03198e-07
-6.67508e-07
9.9311e-08
-6.9252e-07
9.44064e-08
-7.1435e-07
8.85988e-08
-7.32956e-07
8.20118e-08
-7.48348e-07
7.47728e-08
-7.60582e-07
6.70072e-08
-7.69745e-07
5.88348e-08
-7.75947e-07
5.03673e-08
-7.79316e-07
4.17061e-08
-7.79986e-07
3.29421e-08
-7.78096e-07
2.4155e-08
-7.73783e-07
1.54144e-08
-7.67184e-07
6.78119e-09
-7.58431e-07
-1.69043e-09
-7.4766e-07
-9.94808e-09
-7.34971e-07
-1.79629e-08
-7.2045e-07
-2.57114e-08
-7.0419e-07
-3.3162e-08
-6.86288e-07
-4.02816e-08
-6.66844e-07
-4.70359e-08
-6.45962e-07
-5.33888e-08
-6.23753e-07
-5.93014e-08
-6.00336e-07
-6.47321e-08
-5.75839e-07
-6.96377e-08
-5.50403e-07
-7.39743e-08
-5.24179e-07
-7.76992e-08
-4.97328e-07
-8.07731e-08
-4.70024e-07
-8.31627e-08
-4.42445e-07
-8.48431e-08
-4.14777e-07
-8.58001e-08
-3.87204e-07
-8.60316e-08
-3.59911e-07
-8.55485e-08
-3.33076e-07
-8.43754e-08
-3.06868e-07
-8.25494e-08
-2.81442e-07
-8.0119e-08
-2.56942e-07
-7.71422e-08
-2.33494e-07
-7.36847e-08
-2.11205e-07
-6.98167e-08
-1.90168e-07
-6.56114e-08
-1.70455e-07
-6.11426e-08
-1.52124e-07
-5.64825e-08
-1.35214e-07
-5.17011e-08
-1.1975e-07
-4.68639e-08
-1.05742e-07
-4.2032e-08
-9.31853e-08
-3.72609e-08
-8.20637e-08
-3.26004e-08
-7.23477e-08
-2.80942e-08
-6.39971e-08
-2.378e-08
-5.69612e-08
-1.96892e-08
-5.11802e-08
-1.58472e-08
-4.6586e-08
-1.22737e-08
-4.31034e-08
-8.98255e-09
-4.06517e-08
-5.98224e-09
-3.9146e-08
-3.27606e-09
-3.84983e-08
-8.6254e-10
-3.862e-08
1.26452e-09
-3.94217e-08
3.1129e-09
-4.08164e-08
4.69814e-09
-4.27198e-08
6.03435e-09
-4.50515e-08
7.13791e-09
-4.77355e-08
8.02638e-09
-5.07012e-08
8.71801e-09
-5.38834e-08
9.23105e-09
-5.72227e-08
9.58363e-09
-6.06654e-08
9.79338e-09
-6.41639e-08
9.87719e-09
-6.76761e-08
9.85104e-09
-7.11652e-08
9.72995e-09
-7.45997e-08
9.52778e-09
-7.79527e-08
9.25736e-09
-8.12019e-08
8.93046e-09
-8.4329e-08