/*--------------------------------*- C++ -*----------------------------------*\
  =========                 |
  \\      /  F ield         | OpenFOAM: The Open Source CFD Toolbox
   \\    /   O peration     | Website:  https://openfoam.org
    \\  /    A nd           | Version:  8
     \\/     M anipulation  |
\*---------------------------------------------------------------------------*/
FoamFile
{
    version     2.0;
    format      ascii;
    class       volVectorField;
    location    "0.28";
    object      U;
}
// * * * * * * * * * * * * * * * * * * * * * * * * * * * * * * * * * * * * * //

dimensions      [0 1 -1 0 0 0 0];

internalField   nonuniform List<vector> 
12225
(
(0.0109956 0.00326702 0)
(0.0035298 0.000394566 0)
(-0.00207123 7.42233e-05 0)
(-0.00426961 7.61846e-05 0)
(-0.00617416 4.79195e-05 0)
(-0.00757004 4.1934e-05 0)
(-0.00874876 3.41206e-05 0)
(-0.00973362 2.79759e-05 0)
(-0.0105572 2.09992e-05 0)
(-0.0112139 1.14409e-05 0)
(-0.0116627 -4.05692e-06 0)
(-0.0118102 -3.05551e-05 0)
(-0.0115015 -7.38573e-05 0)
(-0.0105561 -0.000137101 0)
(-0.00891136 -0.000198888 0)
(-0.00661135 -0.000220309 0)
(-0.00502563 -0.000166142 0)
(-0.017353 0.00920049 0)
(0.0266809 0.00996607 0)
(0.0113257 0.00320538 0)
(-0.0021006 0.00156739 0)
(-0.00859556 0.00105057 0)
(-0.0141775 0.000825233 0)
(-0.0184227 0.000692928 0)
(-0.0220249 0.000601569 0)
(-0.0250785 0.000526027 0)
(-0.0276709 0.000449515 0)
(-0.0297944 0.000352462 0)
(-0.0313495 0.000204918 0)
(-0.0321154 -3.48849e-05 0)
(-0.0317504 -0.000406154 0)
(-0.0299176 -0.00089823 0)
(-0.0266477 -0.00134614 0)
(-0.0226381 -0.00117843 0)
(-0.0217746 0.00166611 0)
(-0.0422625 0.0210228 0)
(0.037353 0.0144365 0)
(0.019955 0.00731325 0)
(0.00157209 0.00436983 0)
(-0.0088743 0.00308212 0)
(-0.0179084 0.00249312 0)
(-0.0249974 0.00211565 0)
(-0.0310655 0.00185735 0)
(-0.0362769 0.00164314 0)
(-0.0407631 0.00142843 0)
(-0.0445211 0.00116015 0)
(-0.0474182 0.000761823 0)
(-0.0491648 0.000135191 0)
(-0.0493425 -0.000792913 0)
(-0.0476239 -0.00193924 0)
(-0.0442919 -0.00280029 0)
(-0.0408388 -0.0018671 0)
(-0.0426382 0.00505216 0)
(-0.0634294 0.032491 0)
(0.04414 0.0170017 0)
(0.0285883 0.0120811 0)
(0.00830884 0.00838626 0)
(-0.0052125 0.00622851 0)
(-0.0171636 0.00515471 0)
(-0.0268707 0.00443028 0)
(-0.0352915 0.00392839 0)
(-0.0426293 0.00351079 0)
(-0.0490391 0.00309418 0)
(-0.0545259 0.00257963 0)
(-0.0589489 0.00183053 0)
(-0.0620083 0.000683995 0)
(-0.0633068 -0.000950328 0)
(-0.0626403 -0.00284317 0)
(-0.0605774 -0.00398621 0)
(-0.059115 -0.00175436 0)
(-0.0634941 0.00954712 0)
(-0.0811991 0.0424394 0)
(0.0480838 0.0179416 0)
(0.0364407 0.0167029 0)
(0.0171123 0.0131632 0)
(0.00189302 0.0103544 0)
(-0.0121399 0.00877586 0)
(-0.023993 0.00765942 0)
(-0.0344696 0.00686561 0)
(-0.0437575 0.00620019 0)
(-0.0520055 0.00553746 0)
(-0.0592247 0.0047278 0)
(-0.0652903 0.00357184 0)
(-0.069945 0.00184982 0)
(-0.0728897 -0.000515796 0)
(-0.0740906 -0.00308602 0)
(-0.0743115 -0.00428539 0)
(-0.0755752 -0.000550294 0)
(-0.0818203 0.0143371 0)
(-0.0955405 0.0499066 0)
(0.0500668 0.0177015 0)
(0.0428945 0.0205468 0)
(0.0267601 0.0181253 0)
(0.0115455 0.015165 0)
(-0.00346134 0.0132117 0)
(-0.0167421 0.0117428 0)
(-0.0287724 0.0106587 0)
(-0.0396671 0.00973766 0)
(-0.0495304 0.00881729 0)
(-0.0583727 0.00770299 0)
(-0.0661033 0.00614229 0)
(-0.0725483 0.00387894 0)
(-0.0775506 0.000879925 0)
(-0.0812362 -0.00218262 0)
(-0.0843877 -0.00323189 0)
(-0.0886092 0.00184822 0)
(-0.0960961 0.0190352 0)
(-0.106264 0.0549987 0)
(0.0507964 0.0165479 0)
(0.0475916 0.0232038 0)
(0.0360151 0.0226835 0)
(0.0225408 0.0202317 0)
(0.00788138 0.018205 0)
(-0.0058918 0.0165257 0)
(-0.0187696 0.0152207 0)
(-0.0307428 0.0140879 0)
(-0.0418383 0.0129457 0)
(-0.0520514 0.0115697 0)
(-0.0613333 0.00967566 0)
(-0.0696136 0.00699913 0)
(-0.0768852 0.00357241 0)
(-0.0833798 0.000269624 0)
(-0.0897253 -0.000509198 0)
(-0.0968206 0.0054964 0)
(-0.10526 0.0236087 0)
(-0.112919 0.0582368 0)
(0.0508218 0.0147806 0)
(0.0504634 0.0244946 0)
(0.0438312 0.0263115 0)
(0.0335157 0.0250246 0)
(0.0205605 0.0233622 0)
(0.00740862 0.0217329 0)
(-0.00544915 0.0203581 0)
(-0.0178004 0.0191219 0)
(-0.029573 0.0178525 0)
(-0.0407368 0.0163214 0)
(-0.05128 0.0142411 0)
(-0.0612303 0.0113678 0)
(-0.0707054 0.007803 0)
(-0.0799718 0.00454491 0)
(-0.0893925 0.00408581 0)
(-0.0991212 0.010487 0)
(-0.108527 0.0282783 0)
(-0.114915 0.0603063 0)
(0.050531 0.0126994 0)
(0.0516995 0.0244629 0)
(0.0495285 0.0286407 0)
(0.0431757 0.0290027 0)
(0.0330785 0.0281863 0)
(0.0216775 0.0269605 0)
(0.00982511 0.0257578 0)
(-0.00207627 0.024598 0)
(-0.0138264 0.0233613 0)
(-0.0253494 0.0218459 0)
(-0.0366613 0.0197955 0)
(-0.0478664 0.0170127 0)
(-0.0591594 0.0136539 0)
(-0.0707836 0.0107387 0)
(-0.0828203 0.0106295 0)
(-0.0948039 0.016946 0)
(-0.105321 0.033432 0)
(-0.111605 0.0619849 0)
(0.0501589 0.0105735 0)
(0.0516583 0.0233361 0)
(0.0528719 0.029529 0)
(0.0505443 0.0317303 0)
(0.0440039 0.0321564 0)
(0.0352951 0.0317145 0)
(0.0253958 0.0309894 0)
(0.0148324 0.0301514 0)
(0.00390727 0.0291668 0)
(-0.00725514 0.0278963 0)
(-0.0186626 0.0261415 0)
(-0.0304569 0.0237716 0)
(-0.0428676 0.0209809 0)
(-0.056085 0.0187132 0)
(-0.0699632 0.0190251 0)
(-0.0836397 0.0249477 0)
(-0.0953141 0.0394976 0)
(-0.102379 0.0640678 0)
(0.0498142 0.00859015 0)
(0.0507588 0.0214781 0)
(0.0540336 0.0290811 0)
(0.0551383 0.0329824 0)
(0.0522486 0.0348511 0)
(0.0467673 0.0355039 0)
(0.039551 0.035567 0)
(0.0311203 0.035331 0)
(0.0218193 0.0348599 0)
(0.0118135 0.034096 0)
(0.00110649 0.0329288 0)
(-0.0104381 0.0313047 0)
(-0.0230273 0.0294243 0)
(-0.036793 0.0281003 0)
(-0.0514654 0.0289826 0)
(-0.0660206 0.0344463 0)
(-0.0785864 0.0468362 0)
(-0.0868367 0.067285 0)
(0.0496293 0.00695987 0)
(0.0496568 0.0195324 0)
(0.0536483 0.0277604 0)
(0.0569826 0.0328304 0)
(0.0570008 0.0359735 0)
(0.0544828 0.0377561 0)
(0.0500351 0.0387401 0)
(0.0440565 0.0392752 0)
(0.0368492 0.0394993 0)
(0.0285776 0.039431 0)
(0.0192613 0.0390404 0)
(0.00879639 0.0383427 0)
(-0.00298952 0.0375583 0)
(-0.0161732 0.0373354 0)
(-0.0304479 0.0389297 0)
(-0.044829 0.0441308 0)
(-0.0575951 0.0547092 0)
(-0.0667728 0.0716225 0)
(0.0496462 0.00553574 0)
(0.0486214 0.0175525 0)
(0.0524709 0.0259271 0)
(0.0571682 0.0317429 0)
(0.0594207 0.0359489 0)
(0.059482 0.0388187 0)
(0.0577024 0.0407856 0)
(0.0543004 0.0422081 0)
(0.0494755 0.0432726 0)
(0.043354 0.0440595 0)
(0.0359565 0.0446094 0)
(0.0272093 0.0449982 0)
(0.0170003 0.0454444 0)
(0.0053077 0.0464529 0)
(-0.00758251 0.0489212 0)
(-0.0208373 0.0540896 0)
(-0.032993 0.0632211 0)
(-0.0425231 0.0771017 0)
(0.0498881 0.00433585 0)
(0.0477788 0.015302 0)
(0.0507288 0.0234535 0)
(0.0560156 0.0296295 0)
(0.0598787 0.034641 0)
(0.062129 0.0385323 0)
(0.0629152 0.0415523 0)
(0.0622572 0.0440119 0)
(0.0602006 0.0461163 0)
(0.0567932 0.0479894 0)
(0.052036 0.0497274 0)
(0.0458806 0.05145 0)
(0.0382702 0.0533635 0)
(0.0292293 0.0558329 0)
(0.0190083 0.0594252 0)
(0.00823026 0.0648796 0)
(-0.00203709 0.0729529 0)
(-0.0107777 0.0842022 0)
(0.0502439 0.0034425 0)
(0.0471882 0.012965 0)
(0.0487172 0.0205502 0)
(0.053797 0.0266443 0)
(0.0584183 0.0320082 0)
(0.0620645 0.0366111 0)
(0.0648112 0.0405318 0)
(0.0665538 0.0439922 0)
(0.0671912 0.0471821 0)
(0.0666776 0.0502387 0)
(0.0649801 0.0532833 0)
(0.0620623 0.0564513 0)
(0.0579064 0.0599184 0)
(0.0525641 0.063924 0)
(0.0462303 0.0687797 0)
(0.0393147 0.0748423 0)
(0.0324928 0.0824557 0)
(0.0262976 0.0919135 0)
(0.0506234 0.00283792 0)
(0.0469062 0.0107906 0)
(0.0468902 0.0175192 0)
(0.0512271 0.0231397 0)
(0.0558565 0.0283497 0)
(0.0600056 0.0331691 0)
(0.0637937 0.0375882 0)
(0.0671236 0.0417417 0)
(0.0698234 0.0457825 0)
(0.0717856 0.0498348 0)
(0.0729544 0.0540115 0)
(0.0733009 0.0584303 0)
(0.0728281 0.0632189 0)
(0.0715924 0.0685138 0)
(0.0697309 0.074452 0)
(0.0674808 0.081153 0)
(0.0652093 0.0887052 0)
(0.0631021 0.0972003 0)
(0.0509702 0.00245336 0)
(0.0469258 0.00889824 0)
(0.045636 0.0145655 0)
(0.0491469 0.0194389 0)
(0.0534626 0.024097 0)
(0.0575638 0.0286375 0)
(0.0616363 0.0330428 0)
(0.0656867 0.0373913 0)
(0.0695617 0.0417949 0)
(0.0731464 0.0463497 0)
(0.076391 0.0511386 0)
(0.0792842 0.0562404 0)
(0.0818434 0.0617277 0)
(0.0841193 0.0676593 0)
(0.0862013 0.0740705 0)
(0.0882129 0.0809636 0)
(0.090334 0.0883113 0)
(0.0925721 0.0961068 0)
(0.0512486 0.00219473 0)
(0.0471773 0.00715929 0)
(0.0451644 0.0115737 0)
(0.0482121 0.0155005 0)
(0.0524116 0.0193513 0)
(0.0564992 0.0232522 0)
(0.0606715 0.0272124 0)
(0.0650413 0.0312778 0)
(0.0695089 0.0355147 0)
(0.0739787 0.0399789 0)
(0.0784212 0.044713 0)
(0.082846 0.0497511 0)
(0.0872826 0.0551163 0)
(0.0917757 0.0608157 0)
(0.0963837 0.0668342 0)
(0.101169 0.0731327 0)
(0.106222 0.0796547 0)
(0.111487 0.0863704 0)
(0.0513805 0.0019701 0)
(0.0475512 0.00515514 0)
(0.0456545 0.00795295 0)
(0.0490026 0.0106858 0)
(0.053694 0.0135113 0)
(0.0583019 0.01651 0)
(0.0629838 0.0197239 0)
(0.0678932 0.0231742 0)
(0.072962 0.0268683 0)
(0.0781094 0.0308062 0)
(0.0833178 0.0349836 0)
(0.0886073 0.0393919 0)
(0.0940099 0.0440157 0)
(0.0995622 0.0488305 0)
(0.105304 0.0538009 0)
(0.111266 0.0588804 0)
(0.117509 0.0640189 0)
(0.123955 0.0691926 0)
(0.0512047 0.00146427 0)
(0.0479516 0.00251645 0)
(0.0474329 0.00342991 0)
(0.0521411 0.00480509 0)
(0.0579824 0.00656503 0)
(0.0636255 0.00870029 0)
(0.0692317 0.0112357 0)
(0.0749259 0.0141376 0)
(0.0806481 0.0173411 0)
(0.0863469 0.0207877 0)
(0.0920305 0.024431 0)
(0.0977348 0.0282308 0)
(0.103499 0.0321483 0)
(0.109359 0.0361443 0)
(0.115349 0.0401778 0)
(0.121492 0.0442058 0)
(0.127834 0.0481886 0)
(0.134308 0.052109 0)
(0.0510416 0.00048753 0)
(0.0488635 -0.000782461 0)
(0.0503197 -0.0016438 0)
(0.0566894 -0.00143052 0)
(0.0636688 -0.000432974 0)
(0.070118 0.0012179 0)
(0.0762642 0.00345257 0)
(0.0822546 0.00613979 0)
(0.0880879 0.00914055 0)
(0.0937791 0.0123521 0)
(0.0993846 0.0157024 0)
(0.104967 0.019136 0)
(0.110578 0.0226068 0)
(0.116257 0.0260741 0)
(0.122036 0.0295004 0)
(0.12793 0.0328502 0)
(0.133977 0.0360932 0)
(0.140123 0.0392179 0)
(0.0509816 -0.00119299 0)
(0.0506049 -0.00525396 0)
(0.0542875 -0.00767404 0)
(0.0618583 -0.00815772 0)
(0.0690455 -0.00738786 0)
(0.0751397 -0.00570882 0)
(0.0805958 -0.00335689 0)
(0.0856922 -0.000581496 0)
(0.0905494 0.00242323 0)
(0.0952775 0.00553775 0)
(0.0999813 0.00869041 0)
(0.10474 0.0118333 0)
(0.109606 0.0149306 0)
(0.11461 0.0179529 0)
(0.119769 0.020875 0)
(0.125081 0.0236735 0)
(0.130564 0.0263289 0)
(0.136179 0.0288349 0)
(0.0510874 -0.00381348 0)
(0.0529174 -0.0106969 0)
(0.0578558 -0.0138 0)
(0.0647215 -0.0140126 0)
(0.0699696 -0.0126819 0)
(0.0737013 -0.0104424 0)
(0.0767508 -0.00769258 0)
(0.0795698 -0.00473621 0)
(0.082377 -0.00174719 0)
(0.0853176 0.00119646 0)
(0.0884867 0.00406045 0)
(0.0919337 0.00682617 0)
(0.0956759 0.00948152 0)
(0.0997099 0.0120168 0)
(0.104019 0.0144225 0)
(0.108574 0.0166885 0)
(0.113361 0.0188062 0)
(0.118348 0.020773 0)
(0.0513733 -0.00733384 0)
(0.0547458 -0.0160522 0)
(0.0583365 -0.018285 0)
(0.0616019 -0.0171333 0)
(0.0626257 -0.0147233 0)
(0.0624567 -0.01184 0)
(0.0621637 -0.00886065 0)
(0.0621879 -0.00599023 0)
(0.0626903 -0.00329154 0)
(0.0637383 -0.0007613 0)
(0.065347 0.00161597 0)
(0.0674953 0.00385281 0)
(0.0701418 0.00595858 0)
(0.0732365 0.00793866 0)
(0.0767255 0.00979489 0)
(0.0805487 0.0115263 0)
(0.084665 0.0131312 0)
(0.0890398 0.0146076 0)
(0.0516654 -0.0112724 0)
(0.0543879 -0.019657 0)
(0.0532262 -0.019475 0)
(0.0507501 -0.0165517 0)
(0.0468334 -0.013337 0)
(0.042908 -0.010324 0)
(0.0398005 -0.00761986 0)
(0.0376725 -0.00523419 0)
(0.0364938 -0.00311053 0)
(0.0361964 -0.00118764 0)
(0.0366963 0.000577108 0)
(0.0379056 0.0022114 0)
(0.0397361 0.00373291 0)
(0.0421044 0.00515243 0)
(0.0449318 0.00647603 0)
(0.0481409 0.00770667 0)
(0.0516743 0.00884596 0)
(0.0554925 0.00989009 0)
(0.0513906 -0.0147562 0)
(0.050264 -0.0200874 0)
(0.0420839 -0.0169813 0)
(0.0341476 -0.0130016 0)
(0.0267239 -0.00986263 0)
(0.020647 -0.00737935 0)
(0.0161429 -0.005357 0)
(0.0130228 -0.00367433 0)
(0.0110808 -0.00222642 0)
(0.0101481 -0.000941863 0)
(0.0100821 0.000221753 0)
(0.0107584 0.0012909 0)
(0.0120707 0.00228192 0)
(0.013925 0.00320456 0)
(0.0162372 0.0040645 0)
(0.018928 0.00486543 0)
(0.0219372 0.00561031 0)
(0.0252248 0.00629377 0)
(0.0494098 -0.0167509 0)
(0.0418616 -0.0170019 0)
(0.0272591 -0.011996 0)
(0.0165384 -0.00829684 0)
(0.00811971 -0.00600009 0)
(0.00180255 -0.00437422 0)
(-0.00270302 -0.00312902 0)
(-0.00579373 -0.00213043 0)
(-0.00774839 -0.00128759 0)
(-0.00876639 -0.000547574 0)
(-0.00899989 0.000119079 0)
(-0.00857208 0.000730176 0)
(-0.00758319 0.00129676 0)
(-0.00611773 0.00182506 0)
(-0.0042505 0.00231891 0)
(-0.00205021 0.00278123 0)
(0.000429932 0.00321539 0)
(0.00315707 0.00361689 0)
(0.0439791 -0.0160395 0)
(0.0301586 -0.0114244 0)
(0.0127942 -0.00654696 0)
(0.0027435 -0.00412516 0)
(-0.004455 -0.00287976 0)
(-0.00959242 -0.00205645 0)
(-0.0131619 -0.0014514 0)
(-0.0155798 -0.000977658 0)
(-0.0170999 -0.00058181 0)
(-0.017893 -0.000235597 0)
(-0.0180832 7.61014e-05 0)
(-0.0177681 0.0003624 0)
(-0.0170248 0.000628604 0)
(-0.0159175 0.000877792 0)
(-0.0145021 0.00111192 0)
(-0.0128297 0.00133268 0)
(-0.0109392 0.00154326 0)
(-0.00885279 0.00174248 0)
(0.0329279 -0.0117537 0)
(0.0171993 -0.00537587 0)
(0.00247644 -0.00239219 0)
(-0.00429877 -0.00137443 0)
(-0.00894407 -0.000929287 0)
(-0.0121509 -0.000649643 0)
(-0.0143336 -0.000451501 0)
(-0.0157926 -0.000298954 0)
(-0.0166951 -0.000171956 0)
(-0.0171497 -6.07297e-05 0)
(-0.0172337 3.97416e-05 0)
(-0.0170065 0.000132654 0)
(-0.0165147 0.000219458 0)
(-0.0157967 0.00030121 0)
(-0.0148861 0.000378534 0)
(-0.0138132 0.000452034 0)
(-0.0126004 0.00052409 0)
(-0.0112571 0.000596445 0)
(0.0142166 -0.00381012 0)
(0.00527875 -0.000763935 0)
(-0.00148146 -0.000114752 0)
(-0.00384839 -9.53832e-05 0)
(-0.00544881 -5.81336e-05 0)
(-0.00651848 -3.7881e-05 0)
(-0.0072318 -2.51362e-05 0)
(-0.00770098 -1.4966e-05 0)
(-0.00798293 -6.27121e-06 0)
(-0.00811408 1.58758e-06 0)
(-0.00811973 8.89153e-06 0)
(-0.00801923 1.59213e-05 0)
(-0.00782779 2.26372e-05 0)
(-0.00755806 2.9129e-05 0)
(-0.00722094 3.5467e-05 0)
(-0.00682655 4.16184e-05 0)
(-0.00638197 4.78172e-05 0)
(-0.00588507 5.61331e-05 0)
(6.8753e-06 -5.79719e-07 -1.04509e-20)
(0.000470583 -0.000233537 1.33112e-20)
(0.00149708 -0.000507288 0)
(0.00303224 -0.000728092 0)
(0.00492558 -0.000871067 0)
(0.00701962 -0.000934754 -1.3218e-20)
(0.00916958 -0.000928089 0)
(0.0112496 -0.000865545 0)
(0.0131577 -0.000763965 0)
(0.0148186 -0.000640257 0)
(0.0161841 -0.00050985 1.31345e-20)
(0.017231 -0.000385718 0)
(0.0179578 -0.000277823 0)
(0.0183799 -0.000192899 0)
(0.0185249 -0.000134445 0)
(0.0184268 -0.000103057 1.31895e-20)
(0.0181212 -9.66459e-05 0)
(0.0176397 -0.000111054 0)
(0.0170058 -0.000140508 0)
(0.0162314 -0.000178272 0)
(0.0153149 -0.000217353 0)
(0.01424 -0.000250844 0)
(0.0129757 -0.000272538 0)
(0.0114791 -0.000277632 1.34592e-20)
(0.00969785 -0.000262794 -1.35153e-20)
(0.00757298 -0.000225638 1.35798e-20)
(0.00504257 -0.000164699 1.36541e-20)
(0.00204471 -7.93852e-05 0)
(-0.00148016 3.03371e-05 0)
(-0.00558811 0.000164606 -1.37178e-20)
(-0.0103274 0.000323944 -1.36546e-20)
(-0.0157377 0.000508826 0)
(-0.0218477 0.000719368 0)
(-0.028673 0.000955174 -1.3403e-20)
(-0.0362143 0.00121514 0)
(-0.0444555 0.0014972 0)
(-0.0533624 0.00179803 1.30592e-20)
(-0.0628824 0.00211278 0)
(-0.0729437 0.00243495 1.27855e-20)
(-0.0834569 0.00275635 2.52755e-20)
(-0.0943163 0.00306747 0)
(-0.105402 0.0033579 0)
(-0.116584 0.00361704 0)
(-0.127725 0.00383486 0)
(-0.138681 0.00400259 0)
(-0.149313 0.00411331 2.33306e-20)
(-0.159481 0.00416234 2.29958e-20)
(-0.169055 0.00414743 2.26623e-20)
(-0.177912 0.00406872 0)
(-0.185943 0.00392871 -2.20044e-20)
(-0.19305 0.0037319 0)
(-0.199151 0.00348418 2.1366e-20)
(-0.204179 0.00319145 2.10566e-20)
(-0.20808 0.0028582 0)
(-0.210818 0.00248735 0)
(-0.212368 0.0020831 0)
(-0.212719 0.0016563 1.98976e-20)
(-0.211868 0.00122023 0)
(-0.209848 0.00078378 0)
(-0.206697 0.000354453 0)
(-0.202469 -6.095e-05 0)
(-0.197228 -0.000455867 0)
(-0.191052 -0.000824113 0)
(-0.184033 -0.00116002 0)
(-0.17627 -0.00145861 0)
(-0.167873 -0.00171573 -1.78682e-20)
(-0.158961 -0.00192826 0)
(-0.149657 -0.00209426 0)
(-0.140085 -0.00221305 1.75114e-20)
(-0.130373 -0.00228529 1.74284e-20)
(-0.120643 -0.00231288 0)
(-0.111012 -0.00229894 -1.73108e-20)
(-0.10159 -0.00224755 1.7273e-20)
(-0.0924765 -0.00216361 0)
(-0.0837568 -0.00205248 -1.723e-20)
(-0.0755044 -0.00191982 0)
(-0.0677779 -0.00177123 0)
(-0.0606216 -0.00161213 1.72143e-20)
(-0.0540656 -0.0014475 0)
(-0.0481267 -0.00128177 -1.7211e-20)
(-0.0428094 -0.00111873 0)
(-0.0381071 -0.000961505 1.71956e-20)
(-0.0340041 -0.000812541 1.71798e-20)
(-0.0304765 -0.000673632 1.71573e-20)
(-0.0274945 -0.000545984 3.42542e-20)
(-0.0250235 -0.00043028 -3.41779e-20)
(-0.0230257 -0.000326758 0)
(-0.0214612 -0.000235294 0)
(-0.0202894 -0.000155479 0)
(-0.0194698 -8.66963e-05 -3.37075e-20)
(-0.0189628 -2.81864e-05 -3.35502e-20)
(-0.0187301 2.08882e-05 3.33784e-20)
(-0.0187356 6.14406e-05 0)
(-0.0189455 9.43841e-05 -3.29868e-20)
(-0.0193286 0.00012071 -3.27717e-20)
(-0.0198564 0.000141292 -3.25473e-20)
(-0.0205032 0.00015687 0)
(-0.0212458 0.000168141 0)
(-0.0220634 0.000175738 0)
(-0.0229375 0.000180218 -3.15733e-20)
(-0.0238518 0.000182071 0)
(-0.024792 0.000181723 0)
(-0.0257454 0.000179542 3.07823e-20)
(-0.0267013 0.000175847 0)
(-0.0276502 0.000170913 0)
(-0.0285843 0.000164976 2.99561e-20)
(-0.0294966 0.000158241 0)
(-0.0303816 0.000150885 0)
(-0.0312344 0.000143065 -2.91055e-20)
(-0.0320513 0.000134916 -2.88181e-20)
(-0.0328293 0.000126557 0)
(-0.0335661 0.000118092 2.82386e-20)
(-0.03426 0.00010961 0)
(-0.03491 0.00010119 -2.76546e-20)
(-0.0355154 9.28986e-05 0)
(-0.0360761 8.47934e-05 -2.70674e-20)
(-0.0365924 7.69237e-05 -2.6773e-20)
(-0.037065 6.93298e-05 0)
(-0.0374947 6.20448e-05 0)
(-0.0378828 5.50966e-05 0)
(-0.0382306 4.85082e-05 0)
(-0.0385399 4.22978e-05 0)
(-0.0388125 3.64772e-05 0)
(-0.0390501 3.10521e-05 0)
(-0.039255 2.60217e-05 -2.44122e-20)
(-0.0394292 2.1378e-05 2.41178e-20)
(-0.0395747 1.71045e-05 0)
(-0.0396938 1.31663e-05 0)
(-0.0397885 9.46903e-06 0)
(-0.0398612 5.93223e-06 0)
(-0.039914 3.14686e-06 4.53033e-20)
(-0.0399485 1.54033e-06 0)
(-0.0399662 -2.29715e-07 -4.41364e-20)
(-0.0399694 -1.8882e-06 4.35549e-20)
(-0.0399599 -3.41777e-06 0)
(-0.0399392 -4.75414e-06 0)
(-0.0399087 -5.89047e-06 0)
(-0.0398697 -6.84155e-06 -4.12426e-20)
(-0.0398234 -7.62351e-06 -4.06681e-20)
(-0.0397709 -8.25288e-06 0)
(-0.0397132 -8.74421e-06 -3.95237e-20)
(-0.0396513 -9.1164e-06 -3.89538e-20)
(-0.0395858 -9.38579e-06 3.83855e-20)
(-0.0395174 -9.56573e-06 0)
(-0.0394468 -9.66957e-06 0)
(-0.0393744 -9.7094e-06 3.66903e-20)
(-0.0393008 -9.69738e-06 0)
(-0.0392263 -9.64342e-06 0)
(-0.0391511 -9.55601e-06 0)
(-0.0390756 -9.44211e-06 0)
(-0.0389999 -9.30809e-06 -3.38988e-20)
(-0.0389242 -9.16065e-06 -3.33458e-20)
(-0.0388487 -9.00568e-06 0)
(-0.0387733 -8.84781e-06 -3.22451e-20)
(-0.0386982 -8.69061e-06 0)
(-0.0386234 -8.53714e-06 0)
(-0.0385489 -8.38993e-06 -3.06079e-20)
(-0.0384746 -8.25121e-06 0)
(-0.0384005 -8.1226e-06 -2.95258e-20)
(-0.0383265 -8.00513e-06 0)
(-0.0382526 -7.90006e-06 0)
(-0.0381787 -7.80915e-06 -2.79172e-20)
(-0.0381046 -7.73446e-06 0)
(-0.0380302 -7.67878e-06 -2.68547e-20)
(-0.0379552 -7.64428e-06 0)
(-0.0378795 -7.63225e-06 0)
(-0.0378028 -7.64321e-06 0)
(-0.0377247 -7.67825e-06 2.47545e-20)
(-0.0376448 -7.73956e-06 0)
(-0.0375626 -7.82373e-06 -2.37172e-20)
(-0.0374775 -7.91797e-06 0)
(-0.0373889 -7.99384e-06 0)
(-0.0372961 -7.97237e-06 0)
(-0.0371992 -7.64486e-06 0)
(-0.0370989 -6.61375e-06 0)
(-0.036993 -4.94113e-06 0)
(-0.0368778 -5.66886e-06 0)
(-0.0367666 -8.61114e-06 3.92992e-20)
(-0.0363443 -2.5142e-05 0)
(-0.0338616 -0.000556623 0)
(0.000148278 -0.00104349 3.28844e-20)
(0.00151668 -0.00325741 -4.23557e-20)
(0.00393638 -0.00523765 0)
(0.00722268 -0.00674308 2.79921e-20)
(0.0110664 -0.00768889 0)
(0.0151859 -0.00808073 1.38554e-20)
(0.0193306 -0.00797476 -2.75931e-20)
(0.0232806 -0.00745554 -2.74908e-20)
(0.026852 -0.00662115 0)
(0.029901 -0.00557205 -2.73638e-20)
(0.0323243 -0.00440284 -1.36693e-20)
(0.0340562 -0.0031965 0)
(0.0350644 -0.00202053 0)
(0.0353436 -0.000924636 0)
(0.0349077 6.00092e-05 0)
(0.033782 0.000922314 -1.37986e-20)
(0.0319942 0.00166844 0)
(0.0295657 0.0023201 2.78212e-20)
(0.0265038 0.00291193 0)
(0.0227957 0.00348724 0)
(0.018404 0.00409288 -2.83893e-20)
(0.0132654 0.00477588 0)
(0.00729163 0.00557859 2.89431e-20)
(0.000375305 0.0065346 -1.45767e-20)
(-0.00760542 0.00766713 1.44928e-20)
(-0.016778 0.00898767 -1.43027e-20)
(-0.0272649 0.0104964 -1.40907e-20)
(-0.0391773 0.0121839 0)
(-0.0526048 0.0140324 0)
(-0.0676082 0.0160163 1.33335e-20)
(-0.0842132 0.0181034 -1.29938e-20)
(-0.102404 0.0202541 0)
(-0.12212 0.0224216 0)
(-0.143249 0.0245526 1.21426e-20)
(-0.165632 0.0265885 0)
(-0.189063 0.0284678 0)
(-0.213292 0.030129 -1.12468e-20)
(-0.238039 0.0315141 0)
(-0.262999 0.0325717 1.06889e-20)
(-0.287854 0.0332603 -2.0898e-20)
(-0.312284 0.0335499 0)
(-0.335977 0.0334232 0)
(-0.35864 0.0328765 -3.92114e-20)
(-0.380004 0.0319181 -3.84796e-20)
(-0.399828 0.030568 -3.78079e-20)
(-0.417906 0.0288554 1.86367e-20)
(-0.434068 0.0268166 -1.82701e-20)
(-0.448176 0.0244934 -5.41265e-20)
(-0.460128 0.0219306 3.56487e-20)
(-0.469852 0.019174 1.75561e-20)
(-0.477306 0.0162686 0)
(-0.482474 0.0132562 -1.71824e-20)
(-0.485364 0.0101757 1.71403e-20)
(-0.486004 0.00706582 0)
(-0.484434 0.0039695 0)
(-0.480717 0.000930383 0)
(-0.474975 -0.00201478 -1.64268e-20)
(-0.467303 -0.00483656 0)
(-0.457805 -0.00750734 3.2408e-20)
(-0.446598 -0.0100039 0)
(-0.433808 -0.0123041 3.19806e-20)
(-0.419572 -0.0143875 0)
(-0.404038 -0.0162355 -3.1697e-20)
(-0.387364 -0.0178319 0)
(-0.369717 -0.0191634 3.15695e-20)
(-0.351274 -0.0202206 -1.58254e-20)
(-0.332215 -0.020998 0)
(-0.312728 -0.0214954 -3.16936e-20)
(-0.293 -0.0217175 -1.5876e-20)
(-0.273218 -0.0216746 -1.59628e-20)
(-0.253562 -0.0213819 0)
(-0.234207 -0.0208595 -1.625e-20)
(-0.215316 -0.0201315 -1.63357e-20)
(-0.197038 -0.0192251 0)
(-0.179508 -0.0181698 1.66575e-20)
(-0.162843 -0.0169961 -3.37046e-20)
(-0.147139 -0.0157345 0)
(-0.132477 -0.0144147 -1.71898e-20)
(-0.118915 -0.0130647 0)
(-0.106493 -0.01171 5.26359e-20)
(-0.0952324 -0.0103735 0)
(-0.0851381 -0.00907458 -5.3546e-20)
(-0.0761983 -0.0078296 -1.79703e-20)
(-0.0683873 -0.00665148 1.81008e-20)
(-0.061667 -0.00554995 3.63791e-20)
(-0.0559886 -0.00453174 -3.65142e-20)
(-0.0512949 -0.00360086 0)
(-0.0475221 -0.00275895 0)
(-0.0446016 -0.00200561 0)
(-0.0424617 -0.00133877 1.09832e-19)
(-0.0410292 -0.000755034 3.65325e-20)
(-0.040231 -0.000250058 -3.6422e-20)
(-0.0399954 0.00018135 0)
(-0.0402523 0.000545293 -3.60692e-20)
(-0.0409354 0.000847732 3.58322e-20)
(-0.0419822 0.00109475 3.55792e-20)
(-0.0433347 0.00129215 0)
(-0.0449392 0.00144544 0)
(-0.0467466 0.00155985 0)
(-0.0487123 0.00164026 3.44334e-20)
(-0.0507961 0.00169115 0)
(-0.0529622 0.00171662 -6.76097e-20)
(-0.0551788 0.00172036 -1.00458e-19)
(-0.0574181 0.00170569 6.63231e-20)
(-0.0596557 0.0016756 0)
(-0.0618706 0.00163274 3.25052e-20)
(-0.0640449 0.00157946 0)
(-0.0661634 0.00151783 6.37068e-20)
(-0.0682134 0.00144971 -3.15222e-20)
(-0.0701846 0.00137671 -3.11954e-20)
(-0.0720688 0.00130026 0)
(-0.0738594 0.0012216 -9.16467e-20)
(-0.0755518 0.00114181 6.04488e-20)
(-0.0771428 0.00106183 2.99051e-20)
(-0.0786303 0.000982476 0)
(-0.0800136 0.00090443 2.92654e-20)
(-0.0812931 0.000828287 8.68397e-20)
(-0.0824699 0.000754537 0)
(-0.083546 0.000683585 5.66325e-20)
(-0.0845241 0.000615764 5.60077e-20)
(-0.0854074 0.000551343 5.53859e-20)
(-0.0861998 0.00049053 0)
(-0.0869053 0.000433468 0)
(-0.0875285 0.000380243 0)
(-0.0880742 0.000330884 -2.64623e-20)
(-0.0885471 0.000285373 -2.61598e-20)
(-0.0889523 0.000243644 0)
(-0.0892949 0.000205579 -5.11069e-20)
(-0.0895798 0.000170992 -5.05044e-20)
(-0.0898118 0.000139756 0)
(-0.0899957 0.000112287 -4.93049e-20)
(-0.0901366 8.86735e-05 -9.74095e-20)
(-0.0902387 6.74749e-05 4.81057e-20)
(-0.090306 4.89725e-05 4.75064e-20)
(-0.0903428 3.2774e-05 0)
(-0.0903525 1.87988e-05 0)
(-0.0903386 6.89458e-06 0)
(-0.0903043 -3.14222e-06 4.51298e-20)
(-0.0902525 -1.15055e-05 -4.45381e-20)
(-0.0901857 -1.83813e-05 -8.78963e-20)
(-0.0901064 -2.39335e-05 4.33592e-20)
(-0.0900166 -2.83331e-05 -4.27708e-20)
(-0.0899182 -3.17317e-05 -4.21839e-20)
(-0.0898128 -3.42639e-05 0)
(-0.0897018 -3.60567e-05 0)
(-0.0895865 -3.72237e-05 4.04276e-20)
(-0.0894679 -3.78717e-05 0)
(-0.0893469 -3.80932e-05 0)
(-0.0892243 -3.79686e-05 -7.73593e-20)
(-0.0891006 -3.75667e-05 0)
(-0.0889764 -3.69484e-05 -3.75187e-20)
(-0.088852 -3.61716e-05 3.69397e-20)
(-0.0887279 -3.5286e-05 0)
(-0.0886041 -3.43326e-05 -3.57843e-20)
(-0.0884809 -3.33456e-05 0)
(-0.0883584 -3.23544e-05 0)
(-0.0882365 -3.13845e-05 3.40586e-20)
(-0.0881154 -3.04588e-05 -6.69707e-20)
(-0.0879948 -2.95976e-05 3.29132e-20)
(-0.0878747 -2.88185e-05 0)
(-0.0877549 -2.81409e-05 0)
(-0.0876353 -2.75875e-05 -3.12034e-20)
(-0.0875154 -2.71846e-05 0)
(-0.0873951 -2.69652e-05 -3.00695e-20)
(-0.0872738 -2.6966e-05 0)
(-0.0871509 -2.72287e-05 0)
(-0.0870257 -2.78031e-05 0)
(-0.0868973 -2.87552e-05 -2.78173e-20)
(-0.0867645 -3.01728e-05 0)
(-0.0866257 -3.21468e-05 2.66996e-20)
(-0.0864791 -3.47637e-05 0)
(-0.0863221 -3.80739e-05 0)
(-0.0861517 -4.19738e-05 -5.00696e-20)
(-0.0859648 -4.61232e-05 4.89661e-20)
(-0.0857562 -5.02667e-05 0)
(-0.0855133 -5.69934e-05 0)
(-0.0852176 -8.77949e-05 0)
(-0.0848007 -0.000224313 -1.33727e-19)
(-0.0836287 -0.00069758 0)
(-0.0802601 -0.00236953 8.45795e-20)
(0.000206628 -0.00301799 -7.56007e-24)
(0.00202928 -0.00823314 5.62262e-20)
(0.00507775 -0.0124022 0)
(0.00905339 -0.0153619 -5.54924e-20)
(0.0135376 -0.0170847 0)
(0.0181864 -0.0176417 0)
(0.0227129 -0.017168 4.10522e-24)
(0.0268721 -0.0158368 2.71997e-20)
(0.0304595 -0.0138386 2.71465e-20)
(0.0333111 -0.0113644 2.71361e-20)
(0.0353011 -0.00859266 0)
(0.0363382 -0.00568008 0)
(0.0363601 -0.00275511 -2.73519e-20)
(0.0353266 8.60434e-05 -5.49007e-20)
(0.0332127 0.00278536 5.50643e-20)
(0.03 0.00532063 0)
(0.0256686 0.00770393 5.56391e-20)
(0.0201892 0.00997893 -2.80545e-20)
(0.0135138 0.0122156 0)
(0.00557104 0.0145018 5.72872e-20)
(-0.0037339 0.0169322 2.86388e-20)
(-0.0145249 0.0196021 -5.62636e-20)
(-0.0269377 0.0225882 -2.76159e-20)
(-0.0411166 0.0259444 0)
(-0.0571984 0.0296957 5.26615e-20)
(-0.0752991 0.033835 5.12843e-20)
(-0.0954994 0.0383238 0)
(-0.117832 0.0430947 4.83621e-20)
(-0.142269 0.0480542 0)
(-0.168713 0.053086 4.53647e-20)
(-0.196994 0.0580554 2.19579e-20)
(-0.226871 0.0628152 0)
(-0.258034 0.0672124 0)
(-0.290119 0.0710971 0)
(-0.322719 0.0743305 0)
(-0.355402 0.0767935 0)
(-0.38773 0.0783927 0)
(-0.419274 0.0790653 3.57288e-20)
(-0.449633 0.0787807 -5.23295e-20)
(-0.478439 0.0775399 0)
(-0.505374 0.0753732 0)
(-0.530169 0.0723362 0)
(-0.552609 0.0685044 -2.34799e-22)
(-0.572532 0.0639681 3.20176e-20)
(-0.589825 0.0588273 6.35972e-20)
(-0.604422 0.0531863 -6.3018e-20)
(-0.616296 0.0471499 -3.13903e-20)
(-0.625453 0.0408196 3.09318e-20)
(-0.63193 0.0342916 2.48442e-22)
(-0.635783 0.0276542 3.08632e-20)
(-0.637092 0.0209871 0)
(-0.635945 0.0143626 3.06436e-20)
(-0.632441 0.00784971 2.25177e-22)
(-0.62668 0.00151256 0)
(-0.618821 -0.00458847 0)
(-0.60898 -0.0104127 -2.99674e-20)
(-0.597245 -0.015931 0)
(-0.583729 -0.0211166 0)
(-0.568549 -0.0259409 2.95667e-20)
(-0.551824 -0.0303759 5.85008e-20)
(-0.533685 -0.0343943 -2.89779e-20)
(-0.514267 -0.0379706 0)
(-0.493714 -0.0410808 2.88496e-20)
(-0.47218 -0.043704 0)
(-0.449827 -0.0458234 2.90953e-20)
(-0.426824 -0.0474274 2.89174e-20)
(-0.403347 -0.0485113 -5.82389e-20)
(-0.379575 -0.0490777 -2.93456e-20)
(-0.355691 -0.0491379 0)
(-0.331875 -0.0487116 5.93051e-20)
(-0.308304 -0.0478271 0)
(-0.285148 -0.0465202 9.0606e-20)
(-0.262567 -0.0448339 6.11309e-20)
(-0.24071 -0.042816 6.18878e-20)
(-0.21971 -0.0405186 -6.27044e-20)
(-0.199687 -0.0379955 9.53178e-20)
(-0.180742 -0.0353011 0)
(-0.16296 -0.0324887 0)
(-0.146407 -0.0296093 -6.63089e-20)
(-0.131133 -0.0267102 -1.00805e-19)
(-0.11717 -0.0238346 0)
(-0.104535 -0.0210206 3.44477e-20)
(-0.0932277 -0.018301 0)
(-0.0832339 -0.0157033 -1.05587e-19)
(-0.0745261 -0.0132496 2.56915e-23)
(-0.0670645 -0.0109564 -2.32459e-23)
(-0.0607985 -0.00883554 7.19429e-20)
(-0.0556684 -0.0068943 0)
(-0.0516066 -0.00513572 -7.24521e-20)
(-0.0485394 -0.00355934 1.51311e-23)
(-0.0463888 -0.00216163 0)
(-0.0450736 -0.000936527 0)
(-0.0445116 0.000124133 0)
(-0.0446203 0.00103092 7.18201e-20)
(-0.0453189 0.00179511 0)
(-0.046529 0.00242828 0)
(-0.0481761 0.00294234 0)
(-0.0501901 0.003349 0)
(-0.0525052 0.00365971 0)
(-0.0550608 0.00388543 6.82757e-20)
(-0.0578014 0.0040365 0)
(-0.0606767 0.00412258 6.69218e-20)
(-0.0636418 0.0041526 6.62335e-20)
(-0.0666566 0.00413472 -6.55408e-20)
(-0.069686 0.00407636 0)
(-0.0726991 0.00398423 -6.41516e-20)
(-0.0756697 0.00386432 0)
(-0.0785752 0.00372202 -6.27687e-20)
(-0.0813968 0.0035621 6.20827e-20)
(-0.0841189 0.00338879 1.84201e-19)
(-0.0867289 0.0032058 0)
(-0.0892171 0.0030164 1.80163e-19)
(-0.0915761 0.00282344 5.93878e-20)
(-0.0938005 0.00262937 0)
(-0.0958872 0.00243631 1.16158e-19)
(-0.0978346 0.00224607 1.14865e-19)
(-0.0996427 0.00206022 -1.70379e-19)
(-0.101313 0.00188003 0)
(-0.102847 0.00170656 -5.55301e-20)
(-0.104249 0.00154067 -5.49062e-20)
(-0.105524 0.00138306 -1.62859e-19)
(-0.106675 0.00123426 0)
(-0.107709 0.00109463 0)
(-0.108632 0.000964386 0)
(-0.10945 0.000843618 -5.18524e-20)
(-0.11017 0.0007323 0)
(-0.110798 0.000630305 0)
(-0.111341 0.00053742 5.00668e-20)
(-0.111806 0.000453375 4.94764e-20)
(-0.1122 0.000377862 0)
(-0.112529 0.000310408 0)
(-0.1128 0.000250529 9.54357e-20)
(-0.113018 0.000197963 0)
(-0.113189 0.000151483 -9.30917e-20)
(-0.113319 0.000111213 -9.19211e-20)
(-0.113412 7.65723e-05 0)
(-0.113472 4.70691e-05 0)
(-0.113506 2.21264e-05 8.84357e-20)
(-0.113515 1.27405e-06 7.36509e-25)
(-0.113504 -1.59514e-05 6.94509e-25)
(-0.113475 -2.9951e-05 0)