/*--------------------------------*- C++ -*----------------------------------*\
  =========                 |
  \\      /  F ield         | OpenFOAM: The Open Source CFD Toolbox
   \\    /   O peration     | Website:  https://openfoam.org
    \\  /    A nd           | Version:  8
     \\/     M anipulation  |
\*---------------------------------------------------------------------------*/
FoamFile
{
    version     2.0;
    format      binary;
    class       volScalarField;
    location    "0.18";
    object      mu;
}
// * * * * * * * * * * * * * * * * * * * * * * * * * * * * * * * * * * * * * //

dimensions      [1 -1 -1 0 0 0 0];

internalField   uniform 1.2e-05;

boundaryField
{
    rotor
    {
        type            calculated;
        value           uniform 1.2e-05;
    }
    stator
    {
        type            calculated;
        value           uniform 1.2e-05;
    }
    AMI1
    {
        type            cyclicAMI;
        value           uniform 1.2e-05;
    }
    AMI2
    {
        type            cyclicAMI;
        value           uniform 1.2e-05;
    }
    front
    {
        type            empty;
    }
    back
    {
        type            empty;
    }
}


// ************************************************************************* //
