/*--------------------------------*- C++ -*----------------------------------*\
  =========                 |
  \\      /  F ield         | OpenFOAM: The Open Source CFD Toolbox
   \\    /   O peration     | Website:  https://openfoam.org
    \\  /    A nd           | Version:  8
     \\/     M anipulation  |
\*---------------------------------------------------------------------------*/
FoamFile
{
    version     2.0;
    format      ascii;
    class       volScalarField;
    location    "0.14";
    object      p;
}
// * * * * * * * * * * * * * * * * * * * * * * * * * * * * * * * * * * * * * //

dimensions      [0 2 -2 0 0 0 0];

internalField   nonuniform List<scalar> 
12225
(
1.21769
0.68
0.6247
0.628101
0.609958
0.591395
0.575702
0.56092
0.546402
0.532002
0.517549
0.502842
0.487687
0.471841
0.454979
0.436424
0.415486
0.384034
1.12732
0.69214
0.630784
0.630945
0.611714
0.592449
0.576472
0.561488
0.546794
0.532251
0.517672
0.502848
0.48757
0.471588
0.454572
0.435888
0.41491
0.387988
1.04012
0.711596
0.639402
0.634296
0.614068
0.593891
0.577504
0.562285
0.547386
0.532678
0.517965
0.503023
0.48764
0.471567
0.454505
0.43595
0.415829
0.393828
0.974037
0.73137
0.649196
0.637493
0.616834
0.595768
0.578822
0.563356
0.548265
0.533406
0.518591
0.503588
0.488188
0.472173
0.455329
0.437402
0.418914
0.400937
0.921587
0.744977
0.659395
0.640956
0.62014
0.598356
0.580699
0.56493
0.549652
0.534657
0.519777
0.504783
0.489481
0.473707
0.457367
0.440482
0.423958
0.409216
0.877693
0.751115
0.668959
0.644803
0.623915
0.601764
0.583363
0.567232
0.551776
0.536668
0.521767
0.506864
0.491791
0.476446
0.460862
0.445275
0.430734
0.418549
0.840991
0.751395
0.676981
0.648738
0.627833
0.605808
0.586834
0.57035
0.554762
0.539602
0.524749
0.510036
0.495327
0.480584
0.465941
0.451758
0.439039
0.428805
0.810686
0.747657
0.682937
0.652431
0.631558
0.610113
0.590906
0.574183
0.558563
0.543463
0.528764
0.514353
0.500139
0.486136
0.472536
0.459739
0.44859
0.439809
0.785827
0.741386
0.686712
0.655667
0.6349
0.614322
0.595265
0.578491
0.562976
0.548079
0.533666
0.519679
0.506072
0.492897
0.480364
0.46885
0.458996
0.451288
0.765485
0.733787
0.688512
0.658339
0.637816
0.618217
0.599629
0.583011
0.567734
0.553177
0.539182
0.525727
0.512808
0.500499
0.488998
0.47862
0.46981
0.462893
0.748839
0.725782
0.688713
0.660418
0.640347
0.621731
0.603831
0.587555
0.572625
0.558507
0.545027
0.532179
0.519988
0.508536
0.497992
0.488592
0.480621
0.474298
0.736338
0.718598
0.687817
0.661796
0.642376
0.62464
0.607494
0.591672
0.577139
0.563484
0.550527
0.538266
0.526742
0.516034
0.506273
0.497632
0.490283
0.484376
0.72603
0.711947
0.686374
0.662779
0.644167
0.627289
0.610944
0.595654
0.58156
0.568388
0.555968
0.544294
0.533414
0.523396
0.514335
0.506346
0.499523
0.493964
0.716525
0.705291
0.684366
0.663491
0.646005
0.630096
0.614679
0.600079
0.586545
0.573948
0.56215
0.551135
0.540949
0.531645
0.523282
0.515924
0.509605
0.504375
0.708286
0.699185
0.682086
0.663989
0.647925
0.633094
0.618698
0.604932
0.592089
0.580161
0.569056
0.558755
0.549292
0.540704
0.533018
0.526258
0.520416
0.515509
0.70187
0.694292
0.68011
0.664552
0.650063
0.636385
0.623048
0.610214
0.598172
0.586993
0.576636
0.567083
0.558354
0.550467
0.54343
0.537235
0.531854
0.527276
0.69799
0.691422
0.67926
0.665718
0.652702
0.64015
0.627836
0.615946
0.604755
0.594371
0.584786
0.575988
0.567984
0.560778
0.554358
0.548701
0.543769
0.539534
0.697738
0.691699
0.680637
0.668317
0.656336
0.644673
0.633208
0.622148
0.611752
0.602133
0.593297
0.585227
0.577918
0.57136
0.56553
0.560394
0.555907
0.552035
0.702825
0.69681
0.685746
0.673454
0.661653
0.650344
0.639353
0.628836
0.619034
0.61005
0.601868
0.594454
0.58778
0.581821
0.576542
0.5719
0.567844
0.56433
0.713972
0.707071
0.694217
0.680164
0.667326
0.655606
0.644494
0.634023
0.624435
0.615803
0.608053
0.601101
0.5949
0.589406
0.58457
0.580337
0.576655
0.573467
0.727705
0.71918
0.703063
0.686061
0.671672
0.659286
0.647783
0.637112
0.627567
0.619156
0.61171
0.6051
0.599261
0.594135
0.589659
0.585765
0.582395
0.579486
0.745166
0.733551
0.711852
0.690718
0.674704
0.661659
0.64963
0.638694
0.629211
0.621041
0.613899
0.607626
0.602146
0.597387
0.593266
0.58971
0.586652
0.584033
0.76704
0.749684
0.719234
0.693358
0.676252
0.66267
0.650057
0.638952
0.629678
0.621833
0.615034
0.609122
0.604016
0.59962
0.595839
0.592596
0.589817
0.58747
0.794581
0.766664
0.723537
0.693456
0.676313
0.662297
0.649176
0.638167
0.629286
0.621827
0.615384
0.609829
0.605065
0.600979
0.59747
0.594466
0.591889
0.589739
0.829511
0.782855
0.723275
0.691112
0.675037
0.660581
0.647223
0.636634
0.628249
0.621168
0.615061
0.609824
0.60534
0.601489
0.598174
0.595329
0.592878
0.59084
0.87359
0.795065
0.71768
0.68714
0.672617
0.657676
0.644562
0.634669
0.62679
0.620059
0.614258
0.60929
0.605021
0.601338
0.598155
0.595412
0.593038
0.591053
0.928915
0.797551
0.706499
0.682394
0.669309
0.65416
0.64182
0.6327
0.62525
0.618819
0.613279
0.608514
0.604396
0.600825
0.597727
0.595046
0.59272
0.590756
1.0024
0.78662
0.691068
0.677274
0.66552
0.650803
0.639468
0.630972
0.623841
0.617647
0.612292
0.60766
0.603636
0.600136
0.597093
0.594452
0.592158
0.590205
1.10625
0.770375
0.675815
0.671763
0.661578
0.64801
0.637564
0.629449
0.622533
0.616514
0.611292
0.606754
0.602801
0.599355
0.596355
0.593747
0.591479
0.589536
1.21723
0.761617
0.665583
0.667261
0.658621
0.646146
0.636193
0.628276
0.621513
0.615622
0.61049
0.606019
0.602116
0.598709
0.595739
0.593156
0.590907
0.588972
0.47851
0.47831
0.478077
0.477905
0.477829
0.477865
0.478018
0.478297
0.47871
0.479267
0.479983
0.480874
0.481962
0.483269
0.48482
0.486642
0.488764
0.491213
0.494019
0.497207
0.500804
0.504833
0.509312
0.514255
0.51967
0.525559
0.531915
0.538725
0.545965
0.553606
0.561607
0.569919
0.578484
0.587238
0.596115
0.605041
0.613943
0.622748
0.631383
0.639782
0.647881
0.655624
0.662963
0.669857
0.676272
0.682185
0.687577
0.692438
0.696764
0.700562
0.703841
0.706618
0.708912
0.710746
0.712145
0.713136
0.713747
0.714005
0.713939
0.713577
0.712944
0.712068
0.710972
0.709679
0.708211
0.706588
0.704829
0.702951
0.700969
0.698898
0.696751
0.694539
0.692273
0.689961
0.687613
0.685235
0.682834
0.680416
0.677986
0.675547
0.673103
0.670657
0.668212
0.66577
0.663333
0.660901
0.658476
0.656059
0.653649
0.651247
0.648854
0.646468
0.644089
0.641718
0.639355
0.636997
0.634646
0.632299
0.629958
0.62762
0.625286
0.622954
0.620623
0.618293
0.615963
0.613632
0.611299
0.608963
0.606623
0.604279
0.601929
0.599574
0.597211
0.59484
0.592461
0.590072
0.587673
0.585263
0.582842
0.580409
0.577964
0.575505
0.573033
0.570547
0.568047
0.565531
0.563
0.560453
0.55789
0.555309
0.552711
0.550095
0.547461
0.544808
0.542136
0.539444
0.536733
0.534001
0.531249
0.528475
0.525681
0.522866
0.520029
0.517171
0.51429
0.511389
0.508465
0.505519
0.502551
0.49956
0.496547
0.493511
0.490452
0.487371
0.484266
0.481139
0.477989
0.474815
0.47162
0.468401
0.465161
0.461899
0.458616
0.455313
0.451991
0.448651
0.445297
0.441929
0.438552
0.43517
0.431788
0.428415
0.425059
0.421732
0.418454
0.415244
0.412143
0.409171
0.406556
0.403561
0.479184
0.478885
0.478613
0.478461
0.478424
0.478492
0.478665
0.478947
0.479348
0.479879
0.480556
0.481397
0.482425
0.483662
0.485133
0.486868
0.488893
0.491238
0.493933
0.497005
0.500483
0.504392
0.508751
0.513579
0.518886
0.524676
0.530944
0.537682
0.544869
0.552471
0.560448
0.568751
0.577321
0.586094
0.594999
0.603963
0.612909
0.621763
0.63045
0.638901
0.647051
0.654843
0.662227
0.669163
0.675617
0.681562
0.686981
0.691866
0.696215
0.700035
0.703334
0.706131
0.708445
0.710298
0.711716
0.712727
0.713357
0.713635
0.713589
0.713246
0.712634
0.711777
0.7107
0.709426
0.707976
0.706371
0.704629
0.702767
0.7008
0.698744
0.69661
0.694411
0.692156
0.689855
0.687517
0.685149
0.682757
0.680346
0.677923
0.67549
0.673052
0.670612
0.668172
0.665735
0.663302
0.660874
0.658452
0.656037
0.65363
0.651231
0.648839
0.646455
0.644078
0.641709
0.639346
0.63699
0.63464
0.632294
0.629954
0.627617
0.625283
0.622951
0.620621
0.618291
0.615962
0.613631
0.611298
0.608962
0.606623
0.604279
0.60193
0.599574
0.597211
0.594841
0.592461
0.590072
0.587674
0.585264
0.582843
0.58041
0.577965
0.575506
0.573034
0.570548
0.568048
0.565532
0.563001
0.560454
0.557891
0.55531
0.552712
0.550096
0.547462
0.544809
0.542137
0.539445
0.536733
0.534002
0.531249
0.528476
0.525682
0.522866
0.520029
0.517171
0.514291
0.511389
0.508465
0.505519
0.502551
0.49956
0.496547
0.493511
0.490453
0.487371
0.484267
0.481139
0.477989
0.474816
0.47162
0.468402
0.465162
0.4619
0.458617
0.455314
0.451993
0.448654
0.445299
0.441933
0.438557
0.435176
0.431796
0.428424
0.42507
0.421748
0.418474
0.41527
0.412178
0.409209
0.406596
0.403533
0.479251
0.478856
0.478517
0.478343
0.478299
0.478355
0.478503
0.478744
0.479085
0.479541
0.480126
0.480861
0.481769
0.482875
0.484206
0.485791
0.487662
0.489851
0.492389
0.495309
0.498643
0.502419
0.506662
0.511393
0.516626
0.522369
0.52862
0.535369
0.542593
0.550258
0.558323
0.566735
0.575432
0.584346
0.593402
0.602521
0.611623
0.620628
0.629459
0.638042
0.646311
0.65421
0.66169
0.668705
0.675223
0.681219
0.686678
0.691593
0.695962
0.699795
0.703102
0.705903
0.708216
0.710068
0.711483
0.712491
0.713118
0.713394
0.713347
0.713004
0.712393
0.711538
0.710465
0.709196
0.707752
0.706153
0.704419
0.702564
0.700606
0.698559
0.696434
0.694243
0.691997
0.689706
0.687376
0.685016
0.682633
0.68023
0.677814
0.675389
0.672958
0.670525
0.668091
0.665659
0.663232
0.660809
0.658392
0.655982
0.65358
0.651184
0.648796
0.646416
0.644042
0.641676
0.639316
0.636962
0.634614
0.632271
0.629932
0.627597
0.625265
0.622935
0.620606
0.618278
0.615949
0.61362
0.611288
0.608953
0.606615
0.604272
0.601923
0.599568
0.597206
0.594836
0.592457
0.590069
0.58767
0.585261
0.582841
0.580408
0.577963
0.575504
0.573033
0.570547
0.568047
0.565531
0.563
0.560454
0.55789
0.55531
0.552712
0.550096
0.547462
0.544809
0.542137
0.539445
0.536733
0.534001
0.531249
0.528476
0.525682
0.522866
0.520029
0.517171
0.514291
0.511389
0.508465
0.505519
0.50255
0.49956
0.496547
0.493511
0.490452
0.487371
0.484266
0.481139
0.477989
0.474815
0.47162
0.468401
0.465161
0.461899
0.458616
0.455313
0.451991
0.448652
0.445298
0.441931
0.438554
0.435173
0.431793
0.42842
0.425066
0.421742
0.418466
0.415258
0.412159
0.409165
0.406507
0.403264
0.478271
0.477818
0.477425
0.477209
0.477122
0.477125
0.477204
0.477359
0.477598
0.477932
0.47838
0.478963
0.479704
0.480632
0.481777
0.483171
0.484848
0.486845
0.489199
0.491947
0.495127
0.498772
0.502912
0.507574
0.512775
0.518524
0.524823
0.531658
0.539007
0.546835
0.555095
0.56373
0.572671
0.581844
0.591166
0.600553
0.609916
0.61917
0.628232
0.637026
0.645486
0.653554
0.661175
0.668308
0.674918
0.680985
0.686494
0.691442
0.695831
0.69967
0.702975
0.705766
0.708066
0.709901
0.711298
0.712286
0.712896
0.713155
0.713093
0.712738
0.712116
0.711254
0.710176
0.708904
0.70746
0.705863
0.704132
0.702283
0.700331
0.698291
0.696174
0.693993
0.691757
0.689475
0.687156
0.684807
0.682433
0.680041
0.677636
0.675221
0.6728
0.670376
0.667951
0.665528
0.663109
0.660694
0.658285
0.655883
0.653487
0.651098
0.648716
0.646342
0.643974
0.641612
0.639257
0.636908
0.634564
0.632225
0.62989
0.627558
0.625229
0.622902
0.620576
0.61825
0.615924
0.613597
0.611267
0.608934
0.606597
0.604256
0.601909
0.599555
0.597194
0.594825
0.592447
0.59006
0.587662
0.585254
0.582834
0.580402
0.577957
0.5755
0.573028
0.570543
0.568043
0.565528
0.562998
0.560451
0.557888
0.555308
0.55271
0.550094
0.54746
0.544807
0.542135
0.539444
0.536732
0.534
0.531248
0.528475
0.52568
0.522865
0.520028
0.51717
0.514289
0.511387
0.508463
0.505517
0.502549
0.499558
0.496545
0.493509
0.490451
0.487369
0.484264
0.481137
0.477986
0.474813
0.471617
0.468398
0.465158
0.461895
0.458612
0.455308
0.451985
0.448645
0.445289
0.44192
0.438541
0.435156
0.431772
0.428394
0.425032
0.421698
0.418408
0.415179
0.412047
0.408991
0.406209
0.402782
0.476135
0.475657
0.475231
0.474974
0.474833
0.474763
0.47475
0.474793
0.4749
0.475083
0.475361
0.475756
0.476295
0.477007
0.477926
0.479088
0.480532
0.4823
0.484435
0.486981
0.489981
0.493477
0.497505
0.502097
0.507276
0.513055
0.519435
0.526405
0.533941
0.542005
0.550544
0.559494
0.568778
0.578311
0.588003
0.597758
0.60748
0.617076
0.626456
0.635539
0.644258
0.652551
0.660362
0.66765
0.674384
0.680545
0.686123
0.691116
0.695533
0.699384
0.70269
0.705473
0.707758
0.709574
0.710951
0.711919
0.712509
0.71275
0.712673
0.712305
0.711674
0.710806
0.709725
0.708453
0.707011
0.705419
0.703695
0.701855
0.699915
0.697886
0.695783
0.693616
0.691395
0.689129
0.686826
0.684492
0.682135
0.679758
0.677368
0.674968
0.672562
0.670152
0.667741
0.665332
0.662925
0.660522
0.658125
0.655733
0.653348
0.650969
0.648596
0.64623
0.64387
0.641517
0.639169
0.636826
0.634489
0.632155
0.629826
0.627499
0.625175
0.622852
0.62053
0.618208
0.615886
0.613562
0.611235
0.608905
0.606571
0.604232
0.601887
0.599535
0.597176
0.594808
0.592432
0.590046
0.58765
0.585242
0.582824
0.580393
0.577949
0.575492
0.573022
0.570537
0.568038
0.565523
0.562993
0.560447
0.557884
0.555305
0.552707
0.550092
0.547458
0.544805
0.542133
0.539442
0.53673
0.533998
0.531246
0.528473
0.525679
0.522863
0.520026
0.517168
0.514288
0.511386
0.508462
0.505516
0.502547
0.499556
0.496543
0.493507
0.490448
0.487367
0.484262
0.481134
0.477983
0.474809
0.471613
0.468393
0.465152
0.461888
0.458604
0.455298
0.451974
0.448631
0.445272
0.441899
0.438515
0.435125
0.431732
0.428344
0.424968
0.421616
0.4183
0.415033
0.411842
0.408694
0.405742
0.402156
0.47286
0.472375
0.471925
0.471627
0.471422
0.471265
0.471142
0.47105
0.470998
0.470999
0.471072
0.471241
0.471533
0.471981
0.472622
0.473496
0.474648
0.476127
0.477984
0.480271
0.483041
0.486342
0.490223
0.494721
0.499869
0.505681
0.512165
0.519312
0.527094
0.53547
0.544378
0.553744
0.563482
0.573492
0.583672
0.593913
0.604108
0.614152
0.623946
0.633408
0.642464
0.651049
0.659108
0.666601
0.673499
0.679787
0.685459
0.69052
0.694979
0.698855
0.702171
0.704952
0.707229
0.709032
0.710393
0.711344
0.711918
0.712145
0.712056
0.71168
0.711044
0.710174
0.709094
0.707826
0.706392
0.704811
0.703099
0.701274
0.69935
0.69734
0.695256
0.693109
0.690908
0.688663
0.686381
0.684069
0.681733
0.679378
0.677008
0.674628
0.672242
0.669851
0.667458
0.665067
0.662677
0.66029
0.657908
0.655531
0.65316
0.650794
0.648434
0.64608
0.643731
0.641387
0.639049
0.636716
0.634387
0.632061
0.629739
0.627419
0.625101
0.622785
0.620469
0.618152
0.615834
0.613514
0.611192
0.608865
0.606535
0.604199
0.601857
0.599508
0.597151
0.594786
0.592412
0.590027
0.587633
0.585227
0.58281
0.58038
0.577937
0.575482
0.573012
0.570529
0.56803
0.565517
0.562987
0.560442
0.55788
0.5553
0.552703
0.550088
0.547455
0.544802
0.54213
0.539439
0.536728
0.533996
0.531244
0.528471
0.525676
0.522861
0.520024
0.517165
0.514285
0.511383
0.508459
0.505513
0.502545
0.499554
0.49654
0.493504
0.490445
0.487363
0.484258
0.48113
0.477979
0.474804
0.471607
0.468387
0.465144
0.461879
0.458592
0.455285
0.451957
0.448611
0.445248
0.44187
0.438479
0.435079
0.431675
0.428272
0.424877
0.421498
0.418145
0.414827
0.41156
0.408302
0.405161
0.40144
0.468529
0.468045
0.467576
0.46723
0.46695
0.466689
0.466432
0.466177
0.465931
0.465708
0.465527
0.465412
0.465394
0.465506
0.465789
0.466291
0.467062
0.46816
0.469646
0.471583
0.474036
0.477068
0.480737
0.485096
0.490183
0.496024
0.502633
0.510001
0.518098
0.526874
0.536261
0.54617
0.556497
0.567128
0.577941
0.588811
0.599615
0.610235
0.620562
0.630507
0.639993
0.648951
0.657326
0.66508
0.67219
0.678644
0.684443
0.689596
0.69412
0.698038
0.701378
0.70417
0.706449
0.708248
0.709601
0.710544
0.711109
0.711329
0.711236
0.710858
0.710224
0.709358
0.708286
0.70703
0.705609
0.704044
0.702352
0.700547
0.698645
0.696659
0.6946
0.692478
0.690304
0.688085
0.68583
0.683544
0.681234
0.678905
0.676561
0.674206
0.671843
0.669476
0.667106
0.664736
0.662367
0.66
0.657637
0.655278
0.652924
0.650575
0.64823
0.64589
0.643555
0.641225
0.638898
0.636576
0.634258
0.631942
0.629629
0.627318
0.625009
0.6227
0.62039
0.61808
0.615768
0.613454
0.611137
0.608815
0.606489
0.604157
0.601818
0.599473
0.597119
0.594757
0.592385
0.590004
0.587611
0.585207
0.582792
0.580364
0.577923
0.575469
0.573
0.570518
0.568021
0.565508
0.562979
0.560435
0.557873
0.555294
0.552698
0.550083
0.54745
0.544798
0.542127
0.539436
0.536724
0.533993
0.531241
0.528467
0.525673
0.522858
0.520021
0.517162
0.514282
0.51138
0.508456
0.50551
0.502542
0.499551
0.496537
0.493501
0.490441
0.487359
0.484254
0.481125
0.477973
0.474798
0.4716
0.468378
0.465134
0.461867
0.458578
0.455268
0.451937
0.448587
0.445218
0.441833
0.438433
0.435022
0.431604
0.428182
0.424762
0.42135
0.417953
0.414574
0.411219
0.407844
0.404515
0.40067
0.46326
0.462782
0.462293
0.461892
0.46152
0.46113
0.460706
0.460247
0.459757
0.459251
0.458746
0.458268
0.457848
0.457523
0.45734
0.45735
0.457615
0.458203
0.459188
0.46065
0.462669
0.465326
0.468698
0.472852
0.477842
0.483706
0.490464
0.498108
0.506605
0.515898
0.5259
0.536506
0.54759
0.559015
0.570636
0.582304
0.593877
0.60522
0.616214
0.626761
0.63678
0.646198
0.654962
0.66304
0.670413
0.677075
0.683035
0.688309
0.692921
0.696902
0.700283
0.703102
0.705397
0.707204
0.708562
0.709508
0.710075
0.710299
0.710211
0.709841
0.709217
0.708365
0.707309
0.706072
0.704673
0.703131
0.701464
0.699686
0.697813
0.695856
0.693827
0.691736
0.689593
0.687406
0.685182
0.682927
0.680648
0.678349
0.676034
0.673708
0.671373
0.669033
0.666689
0.664344
0.662
0.659656
0.657316
0.654978
0.652644
0.650313
0.647987
0.645664
0.643345
0.64103
0.638718
0.636409
0.634103
0.631799
0.629498
0.627197
0.624897
0.622597
0.620296
0.617993
0.615689
0.613381
0.61107
0.608754
0.606433
0.604106
0.601772
0.59943
0.597081
0.594722
0.592353
0.589974
0.587585
0.585183
0.58277
0.580344
0.577905
0.575452
0.572986
0.570505
0.568009
0.565497
0.56297
0.560426
0.557865
0.555287
0.552692
0.550078
0.547445
0.544793
0.542122
0.539431
0.53672
0.533989
0.531237
0.528464
0.52567
0.522854
0.520017
0.517159
0.514279
0.511377
0.508453
0.505507
0.502538
0.499547
0.496533
0.493497
0.490437
0.487354
0.484248
0.481119
0.477967
0.47479
0.471591
0.468368
0.465122
0.461854
0.458562
0.455249
0.451914
0.448558
0.445183
0.441789
0.43838
0.434956
0.43152
0.428077
0.424629
0.42118
0.417733
0.414287
0.41084
0.407347
0.403839
0.39988
0.457197
0.456733
0.456225
0.455758
0.455271
0.454719
0.454085
0.453366
0.452567
0.451699
0.450781
0.449837
0.448899
0.44801
0.447219
0.446587
0.446189
0.446105
0.446429
0.44726
0.448703
0.450859
0.453831
0.457708
0.462561
0.468444
0.475386
0.48338
0.492387
0.502335
0.513119
0.524607
0.536646
0.549066
0.561691
0.574346
0.586862
0.599084
0.610886
0.622161
0.632817
0.642783
0.65201
0.660471
0.668154
0.675064
0.681218
0.68664
0.691364
0.695427
0.698868
0.701731
0.704057
0.705889
0.707266
0.708227
0.708811
0.709051
0.708981
0.70863
0.708027
0.707199
0.706169
0.70496
0.70359
0.70208
0.700446
0.698702
0.696864
0.694942
0.692949
0.690895
0.688788
0.686637
0.684448
0.682229
0.679984
0.677719
0.675437
0.673143
0.67084
0.66853
0.666216
0.663899
0.661581
0.659264
0.656948
0.654634
0.652323
0.650014
0.647707
0.645404
0.643103
0.640805
0.638509
0.636216
0.633924
0.631634
0.629345
0.627056
0.624767
0.622477
0.620186
0.617892
0.615596
0.613296
0.610992
0.608683
0.606368
0.604046
0.601717
0.59938
0.597035
0.59468
0.592315
0.58994
0.587553
0.585155
0.582744
0.580321
0.577884
0.575433
0.572969
0.570489
0.567995
0.565485
0.562959
0.560416
0.557856
0.555279
0.552684
0.550071
0.547439
0.544787
0.542117
0.539426
0.536715
0.533984
0.531232
0.528459
0.525665
0.52285
0.520013
0.517155
0.514275
0.511373
0.508449
0.505503
0.502534
0.499543
0.496529
0.493492
0.490432
0.487349
0.484243
0.481113
0.477959
0.474782
0.471582
0.468357
0.46511
0.461838
0.458544
0.455227
0.451887
0.448526
0.445143
0.441741
0.43832
0.434882
0.431428
0.427961
0.424482
0.420993
0.417494
0.413979
0.41044
0.406832
0.403161
0.399094
0.450524
0.450086
0.449563
0.449018
0.448391
0.44764
0.446744
0.445702
0.444516
0.443196
0.441759
0.440229
0.43864
0.437037
0.435477
0.434033
0.432791
0.431854
0.431337
0.431365
0.432073
0.433593
0.436057
0.439583
0.444263
0.450171
0.457345
0.465779
0.475423
0.486187
0.497939
0.510515
0.523722
0.537353
0.55119
0.565023
0.578653
0.591915
0.604664
0.616781
0.628168
0.638759
0.648509
0.657401
0.665434
0.672623
0.678995
0.684588
0.689443
0.693606
0.697125
0.700048
0.702422
0.704293
0.705705
0.706698
0.707312
0.707582
0.707543
0.707225
0.706656
0.705863
0.70487
0.703699
0.702369
0.700899
0.699305
0.697603
0.695806
0.693927
0.691975
0.689962
0.687896
0.685786
0.683637
0.681457
0.67925
0.677023
0.674778
0.672519
0.67025
0.667973
0.665691
0.663405
0.661117
0.658828
0.65654
0.654252
0.651965
0.649679
0.647395
0.645113
0.642832
0.640553
0.638275
0.635999
0.633723
0.631448
0.629172
0.626897
0.62462
0.622342
0.620061
0.617777
0.61549
0.613199
0.610903
0.608601
0.606293
0.603978
0.601655
0.599323
0.596983
0.594632
0.592272
0.5899
0.587517
0.585122
0.582714
0.580293
0.577859
0.575411
0.572948
0.570471
0.567978
0.56547
0.562945
0.560404
0.557845
0.555269
0.552675
0.550062
0.547431
0.54478
0.54211
0.53942
0.53671
0.533979
0.531227
0.528454
0.525661
0.522845
0.520009
0.51715
0.51427
0.511368
0.508444
0.505498
0.50253
0.499538
0.496524
0.493487
0.490427
0.487343
0.484236
0.481106
0.477952
0.474773
0.471571
0.468346
0.465096
0.461822
0.458524
0.455203
0.451859
0.448491
0.445101
0.441689
0.438256
0.434803
0.431329
0.427837
0.424327
0.420797
0.417244
0.41366
0.410032
0.406316
0.402499
0.39833
0.443477
0.443081
0.442552
0.441923
0.441135
0.440145
0.438938
0.437506
0.435854
0.433989
0.431925
0.429687
0.427309
0.42484
0.422348
0.419916
0.41765
0.415676
0.414137
0.413193
0.413011
0.413762
0.415616
0.418722
0.4232
0.429147
0.436608
0.445576
0.455992
0.467738
0.480652
0.494524
0.509113
0.524159
0.539396
0.554578
0.569486
0.583925
0.597733
0.610779
0.622967
0.634233
0.644546
0.653898
0.662302
0.669788
0.676394
0.682171
0.68717
0.691447
0.695057
0.698055
0.700491
0.702417
0.703879
0.704919
0.705579
0.705895
0.705901
0.705629
0.705107
0.704362
0.703417
0.702294
0.701014
0.699593
0.698049
0.696396
0.694647
0.692816
0.690912
0.688946
0.686926
0.68486
0.682756
0.680619
0.678454
0.676267
0.674062
0.671842
0.66961
0.667369
0.665121
0.662868
0.660612
0.658354
0.656094
0.653834
0.651574
0.649314
0.647054
0.644794
0.642535
0.640276
0.638018
0.63576
0.633501
0.631242
0.628982
0.626721
0.624457
0.622192
0.619923
0.61765
0.615373
0.613091
0.610804
0.60851
0.60621
0.603901
0.601585
0.599259
0.596924
0.594579
0.592223
0.589855
0.587476
0.585085
0.58268
0.580263
0.577831
0.575386
0.572926
0.570451
0.56796
0.565453
0.56293
0.56039
0.557833
0.555258
0.552665
0.550053
0.547422
0.544772
0.542103
0.539413
0.536703
0.533972
0.531221
0.528449
0.525655
0.52284
0.520003
0.517145
0.514265
0.511364
0.50844
0.505493
0.502525
0.499533
0.496519
0.493482
0.490421
0.487337
0.48423
0.481098
0.477943
0.474764
0.471561
0.468333
0.465081
0.461805
0.458504
0.455179
0.451829
0.448455
0.445057
0.441635
0.438189
0.43472
0.431227
0.427709
0.424166
0.420595
0.41699
0.413339
0.409627
0.40581
0.401865
0.397601
0.43635
0.436019
0.435503
0.434793
0.43383
0.432576
0.431014
0.42914
0.426955
0.424464
0.421681
0.418628
0.415342
0.411877
0.408309
0.404739
0.401295
0.398127
0.395415
0.393353
0.392151
0.392022
0.39318
0.395812
0.400065
0.406063
0.413862
0.423455
0.434767
0.447652
0.4619
0.477249
0.493388
0.510004
0.52679
0.543459
0.559757
0.575461
0.590389
0.604405
0.617418
0.629374
0.640255
0.650067
0.658841
0.666621
0.673462
0.679425
0.684573
0.68897
0.692681
0.695763
0.698276
0.70027
0.701796
0.702899
0.703619
0.703995
0.704061
0.703849
0.703387
0.702702
0.701817
0.700754
0.699532
0.698169
0.696682
0.695086
0.693393
0.691616
0.689766
0.687852
0.685883
0.683866
0.68181
0.679719
0.6776
0.675457
0.673294
0.671115
0.668923
0.66672
0.664509
0.662292
0.66007
0.657844
0.655615
0.653385
0.651153
0.648919
0.646685
0.64445
0.642214
0.639977
0.63774
0.635501
0.633261
0.631019
0.628775
0.626529
0.62428
0.622028
0.619772
0.617511
0.615245
0.612973
0.610695
0.608411
0.606118
0.603817
0.601508
0.599189
0.596859
0.59452
0.592169
0.589806
0.587431
0.585044
0.582643
0.580229
0.577801
0.575358
0.5729
0.570428
0.567939
0.565434
0.562913
0.560375
0.557819
0.555245
0.552653
0.550042
0.547413
0.544763
0.542094
0.539405
0.536695
0.533965
0.531214
0.528442
0.525649
0.522834
0.519998
0.51714
0.51426
0.511358
0.508434
0.505488
0.502519
0.499528
0.496513
0.493476
0.490415
0.48733
0.484222
0.48109
0.477934
0.474754
0.471549
0.46832
0.465066
0.461787
0.458482
0.455153
0.451798
0.448418
0.445012
0.44158
0.438121
0.434636
0.431122
0.427579
0.424004
0.420392
0.416736
0.413022
0.409231
0.405322
0.401266
0.396914
0.429496
0.429258
0.428783
0.428008
0.426877
0.425353
0.423422
0.421079
0.418324
0.415161
0.411602
0.407669
0.403401
0.398858
0.394127
0.389326
0.384605
0.380148
0.376167
0.372898
0.370594
0.369517
0.369925
0.372045
0.376062
0.382123
0.390301
0.400591
0.412895
0.427021
0.442702
0.459609
0.477384
0.495661
0.514078
0.532295
0.550014
0.566986
0.58302
0.597981
0.611785
0.624393
0.635804
0.646043
0.655157
0.663208
0.670265
0.676402
0.681693
0.68621
0.690024
0.693199
0.695797
0.697871
0.699474
0.700652
0.701447
0.701897
0.702036
0.701897
0.701508
0.700894
0.700079
0.699085
0.697931
0.696636
0.695214
0.693681
0.692051
0.690334
0.688542
0.686685
0.684772
0.682809
0.680804
0.678764
0.676694
0.674597
0.67248
0.670344
0.668194
0.666032
0.66386
0.66168
0.659493
0.657302
0.655106
0.652906
0.650704
0.648499
0.646292
0.644083
0.641871
0.639658
0.637442
0.635224
0.633003
0.63078
0.628554
0.626324
0.62409
0.621852
0.619609
0.617361
0.615107
0.612846
0.610578
0.608303
0.606019
0.603726
0.601424
0.599112
0.596789
0.594455
0.59211
0.589752
0.587382
0.584999
0.582602
0.580192
0.577767
0.575327
0.572873
0.570402
0.567916
0.565414
0.562894
0.560358
0.557803
0.555231
0.55264
0.550031
0.547402
0.544753
0.542085
0.539396
0.536687
0.533957
0.531207
0.528435
0.525642
0.522827
0.519991
0.517133
0.514254
0.511352
0.508428
0.505482
0.502513
0.499522
0.496507
0.493469
0.490408
0.487323
0.484215
0.481082
0.477925
0.474744
0.471537
0.468306
0.46505
0.461768
0.458461
0.455127
0.451767
0.44838
0.444966
0.441523
0.438052
0.434551
0.431017
0.42745
0.423843
0.420192
0.416487
0.412714
0.40885
0.404858
0.400704
0.396273
0.423293
0.423181
0.422788
0.421986
0.420721
0.418958
0.416683
0.413889
0.410577
0.40675
0.402418
0.397605
0.392351
0.386724
0.380823
0.374784
0.36878
0.363026
0.357768
0.353285
0.349874
0.347849
0.347514
0.349127
0.352919
0.359058
0.367629
0.378608
0.39187
0.407205
0.424302
0.442771
0.462192
0.482119
0.502124
0.521816
0.540864
0.559002
0.576035
0.591833
0.606327
0.619494
0.631353
0.641949
0.651347
0.659624
0.666864
0.673153
0.678572
0.683203
0.687119
0.69039
0.693079
0.695243
0.696934
0.698199
0.69908
0.699617
0.699842
0.699787
0.699481
0.698949
0.698215
0.6973
0.696223
0.695002
0.693653
0.69219
0.690628
0.688977
0.687249
0.685453
0.683599
0.681694
0.679745
0.677758
0.675739
0.673692
0.671622
0.669533
0.667427
0.665307
0.663176
0.661035
0.658886
0.65673
0.654569
0.652402
0.650231
0.648056
0.645877
0.643695
0.641509
0.639319
0.637126
0.63493
0.63273
0.630526
0.628318
0.626105
0.623888
0.621665
0.619436
0.617201
0.614959
0.61271
0.610453
0.608187
0.605913
0.603629
0.601334
0.59903
0.596714
0.594386
0.592046
0.589694
0.587329
0.58495
0.582558
0.580151
0.57773
0.575294
0.572842
0.570375
0.567891
0.565391
0.562874
0.560339
0.557787
0.555216
0.552626
0.550018
0.54739
0.544742
0.542074
0.539386
0.536678
0.533948
0.531198
0.528427
0.525634
0.52282
0.519984
0.517126
0.514247
0.511346
0.508422
0.505476
0.502507
0.499515
0.496501
0.493463
0.490401
0.487316
0.484207
0.481073
0.477916
0.474733
0.471525
0.468293
0.465034
0.46175
0.458439
0.455101
0.451736
0.448342
0.44492
0.441467
0.437984
0.434467
0.430914
0.427322
0.423685
0.419997
0.416246
0.412417
0.408488
0.404421
0.400183
0.39568
0.418125
0.418165
0.417897
0.417136
0.415812
0.413891
0.411352
0.408188
0.404397
0.399983
0.394958
0.389344
0.383188
0.376565
0.369586
0.362405
0.355219
0.348271
0.341842
0.336248
0.331831
0.328936
0.3279
0.329011
0.332545
0.338695
0.347569
0.359158
0.373325
0.389812
0.408248
0.428174
0.449088
0.470479
0.49186
0.512802
0.532949
0.552027
0.569844
0.586283
0.601291
0.614866
0.627046
0.637895
0.647495
0.655937
0.663314
0.669722
0.675249
0.679981
0.683995
0.687362
0.690147
0.692407
0.694195
0.695558
0.696537
0.69717
0.697491
0.697532
0.69732
0.69688
0.696235
0.695407
0.694414
0.693275
0.692005
0.690619
0.68913
0.68755
0.68589
0.68416
0.682369
0.680525
0.678634
0.676704
0.674739
0.672745
0.670725
0.668684
0.666624
0.664549
0.66246
0.66036
0.65825
0.656132
0.654006
0.651874
0.649735
0.647591
0.645442
0.643287
0.641128
0.638964
0.636795
0.634621
0.632443
0.630259
0.62807
0.625875
0.623674
0.621467
0.619253
0.617032
0.614803
0.612566
0.61032
0.608065
0.6058
0.603525
0.601239
0.598942
0.596633
0.594312
0.591979
0.589632
0.587272
0.584899
0.582511
0.580108
0.577691
0.575258
0.57281
0.570346
0.567865
0.565367
0.562852
0.560319
0.557768
0.555199
0.552611
0.550003
0.547376
0.54473
0.542063
0.539376
0.536668
0.533939
0.531189
0.528418
0.525626
0.522812
0.519976
0.517119
0.51424
0.511339
0.508415
0.505469
0.5025
0.499508
0.496494
0.493456
0.490394
0.487308
0.484199
0.481065
0.477906
0.474722
0.471513
0.468279
0.465018
0.461731
0.458417
0.455075
0.451704
0.448305
0.444875
0.441412
0.437917
0.434384
0.430813
0.427198
0.423532
0.419809
0.416016
0.412136
0.408146
0.404014
0.399702
0.395136
0.414137
0.414348
0.414256
0.413615
0.412345
0.410395
0.407733
0.40434
0.400213
0.395352
0.389771
0.383499
0.376586
0.369118
0.361218
0.353056
0.344851
0.336868
0.329416
0.32284
0.317514
0.313824
0.312129
0.312771
0.316062
0.322233
0.331415
0.343598
0.35862
0.376169
0.395805
0.416996
0.439165
0.461737
0.484182
0.506043
0.526953
0.546644
0.564938
0.581737
0.597011
0.610781
0.623102
0.634056
0.643739
0.652251
0.659695
0.666169
0.671767
0.676574
0.680669
0.684124
0.687001
0.689359
0.691248
0.692714
0.693798
0.694536
0.694963
0.695108