/*--------------------------------*- C++ -*----------------------------------*\
  =========                 |
  \\      /  F ield         | OpenFOAM: The Open Source CFD Toolbox
   \\    /   O peration     | Website:  https://openfoam.org
    \\  /    A nd           | Version:  8
     \\/     M anipulation  |
\*---------------------------------------------------------------------------*/
FoamFile
{
    version     2.0;
    format      ascii;
    class       surfaceScalarField;
    location    "0.14";
    object      phi;
}
// * * * * * * * * * * * * * * * * * * * * * * * * * * * * * * * * * * * * * //

dimensions      [0 3 -1 0 0 0 0];

internalField   nonuniform List<scalar> 
24170
(
1.29556e-07
1.85801e-07
6.38202e-08
6.57357e-08
4.70467e-08
1.67735e-08
4.08175e-08
6.22913e-09
3.72977e-08
3.51978e-09
3.48449e-08
2.45288e-09
3.31904e-08
1.65448e-09
3.21235e-08
1.06688e-09
3.14744e-08
6.49112e-10
3.11528e-08
3.21636e-10
3.11151e-08
3.76579e-11
3.13428e-08
-2.2767e-10
3.18451e-08
-5.02303e-10
3.26686e-08
-8.23535e-10
3.39485e-08
-1.27994e-09
3.60554e-08
-2.10686e-09
4.0404e-08
-4.34864e-09
-1.84899e-08
5.88939e-08
2.75759e-07
2.48033e-07
1.94878e-07
1.46616e-07
1.52194e-07
5.9458e-08
1.30135e-07
2.8288e-08
1.17951e-07
1.57033e-08
1.1017e-07
1.02341e-08
1.04834e-07
6.99046e-09
1.01241e-07
4.66035e-09
9.89437e-08
2.94591e-09
9.76581e-08
1.60726e-09
9.72261e-08
4.6968e-10
9.75746e-08
-5.76184e-10
9.87009e-08
-1.62866e-09
1.00691e-07
-2.8134e-09
1.03772e-07
-4.36116e-09
1.08515e-07
-6.84981e-09
1.16097e-07
-1.19309e-08
-2.85169e-08
1.26124e-07
3.66889e-07
2.43394e-07
3.1371e-07
1.99795e-07
2.64561e-07
1.08607e-07
2.30464e-07
6.23842e-08
2.08988e-07
3.71794e-08
1.95199e-07
2.4024e-08
1.8575e-07
1.64392e-08
1.79213e-07
1.1197e-08
1.74859e-07
7.3e-09
1.72219e-07
4.24766e-09
1.71008e-07
1.68066e-09
1.71078e-07
-6.46049e-10
1.72384e-07
-2.93493e-09
1.74992e-07
-5.42199e-09
1.79106e-07
-8.47433e-09
1.85134e-07
-1.28784e-08
1.93348e-07
-2.01451e-08
-3.57887e-08
2.0062e-07
4.23367e-07
2.08277e-07
4.05059e-07
2.18103e-07
3.68136e-07
1.4553e-07
3.33194e-07
9.73265e-08
3.06321e-07
6.40524e-08
2.8743e-07
4.2915e-08
2.74101e-07
2.97685e-08
2.64625e-07
2.06733e-08
2.58062e-07
1.38625e-08
2.53818e-07
8.49125e-09
2.51509e-07
3.98993e-09
2.5091e-07
-4.67768e-11
2.51916e-07
-3.94111e-09
2.54527e-07
-8.03291e-09
2.58831e-07
-1.27779e-08
2.64928e-07
-1.89756e-08
2.72518e-07
-2.7735e-08
-4.18979e-08
2.78627e-07
4.59037e-07
1.65355e-07
4.67642e-07
2.09499e-07
4.50967e-07
1.62205e-07
4.26037e-07
1.22257e-07
4.01351e-07
8.87382e-08
3.81171e-07
6.30952e-08
3.65768e-07
4.51715e-08
3.5427e-07
3.2171e-08
3.45947e-07
2.21855e-08
3.40258e-07
1.41806e-08
3.36808e-07
7.43927e-09
3.3534e-07
1.42193e-09
3.35698e-07
-4.29912e-09
3.37802e-07
-1.01376e-08
3.416e-07
-1.65751e-08
3.46923e-07
-2.42994e-08
3.53187e-07
-3.39983e-08
-4.6896e-08
3.58185e-07
4.85339e-07
1.25998e-07
5.08681e-07
1.86156e-07
5.10226e-07
1.6066e-07
5.00082e-07
1.32401e-07
4.84299e-07
1.04521e-07
4.6817e-07
7.92235e-08
4.54167e-07
5.91751e-08
4.42817e-07
4.35206e-08
4.3408e-07
3.09229e-08
4.27758e-07
2.05025e-08
4.23618e-07
1.1579e-08
4.21458e-07
3.58177e-09
4.21124e-07
-3.96447e-09
4.22484e-07
-1.14974e-08
4.25374e-07
-1.94655e-08
4.29468e-07
-2.83932e-08
4.34094e-07
-3.86247e-08
-5.05545e-08
4.37753e-07
5.09879e-07
9.4111e-08
5.38129e-07
1.57906e-07
5.51111e-07
1.47678e-07
5.54025e-07
1.29487e-07
5.4949e-07
1.09057e-07
5.41221e-07
8.74924e-08
5.32167e-07
6.82289e-08
5.23767e-07
5.1921e-08
5.16678e-07
3.80116e-08
5.11185e-07
2.59952e-08
5.07356e-07
1.54085e-08
5.05151e-07
5.78614e-09
5.04489e-07
-3.30187e-09
5.05243e-07
-1.22517e-08
5.07209e-07
-2.1431e-08
5.10009e-07
-3.11938e-08
5.13027e-07
-4.16429e-08
-5.28078e-08
5.15281e-07
5.36634e-07
6.97762e-08
5.64187e-07
1.30353e-07
5.82051e-07
1.29814e-07
5.93068e-07
1.1847e-07
5.97833e-07
1.04292e-07
5.97928e-07
8.73975e-08
5.95512e-07
7.06455e-08
5.92064e-07
5.53684e-08
5.88508e-07
4.15677e-08
5.85433e-07
2.907e-08
5.83175e-07
1.76672e-08
5.81884e-07
7.07625e-09
5.81594e-07
-3.0111e-09
5.82235e-07
-1.28927e-08
5.83628e-07
-2.28243e-08
5.85438e-07
-3.30042e-08
5.87181e-07
-4.3385e-08
-5.38595e-08
5.88232e-07
5.67153e-07
5.16919e-08
5.91727e-07
1.05778e-07
6.10382e-07
1.1116e-07
6.24782e-07
1.04069e-07
6.35043e-07
9.40313e-08
6.41372e-07
8.10679e-08
6.44891e-07
6.71265e-08
6.46627e-07
5.3633e-08
6.47334e-07
4.08609e-08
6.47597e-07
2.88066e-08
6.47836e-07
1.74286e-08
6.48304e-07
6.60845e-09
6.49117e-07
-3.82477e-09
6.50275e-07
-1.40506e-08
6.51658e-07
-2.4207e-08
6.53018e-07
-3.43642e-08
6.54026e-07
-4.4393e-08
-5.41445e-08
6.54311e-07
6.01799e-07
3.83699e-08
6.22891e-07
8.46861e-08
6.40555e-07
9.3496e-08
6.55461e-07
8.91633e-08
6.679e-07
8.1592e-08
6.77598e-07
7.13702e-08
6.84983e-07
5.97409e-08
6.90627e-07
4.79895e-08
6.94976e-07
3.65113e-08
6.98422e-07
2.53603e-08
7.01294e-07
1.45573e-08
7.03821e-07
4.08156e-09
7.06131e-07
-6.13542e-09
7.08255e-07
-1.61741e-08
7.10122e-07
-2.6074e-08
7.11573e-07
-3.58149e-08
7.12415e-07
-4.52354e-08
-5.41789e-08
7.12449e-07
6.40522e-07
2.85615e-08
6.58311e-07
6.68969e-08
6.74514e-07
7.7293e-08
6.8876e-07
7.4918e-08
7.01475e-07
6.88767e-08
7.12383e-07
6.04624e-08
7.21597e-07
5.05269e-08
7.2942e-07
4.01663e-08
7.36082e-07
2.98495e-08
7.41776e-07
1.96659e-08
7.46684e-07
9.6493e-09
7.50946e-07
-1.80682e-10
7.54645e-07
-9.8342e-09
7.57795e-07
-1.93244e-08
7.60349e-07
-2.86274e-08
7.62208e-07
-3.76737e-08
7.63276e-07
-4.63033e-08
-5.4366e-08
7.63463e-07
5.74143e-07
2.22293e-08
5.86832e-07
5.42084e-08
5.99443e-07
6.46818e-08
6.10815e-07
6.35457e-08
6.21206e-07
5.84862e-08
6.30514e-07
5.11536e-08
6.38744e-07
4.22978e-08
6.46034e-07
3.28759e-08
6.525e-07
2.33836e-08
6.58222e-07
1.3944e-08
6.6327e-07
4.6013e-09
6.67699e-07
-4.61023e-09
6.71537e-07
-1.36724e-08
6.74775e-07
-2.25617e-08
6.77373e-07
-3.1226e-08
6.79279e-07
-3.95788e-08
6.80452e-07
-4.74767e-08
-5.4786e-08
6.80872e-07
6.9783e-07
1.6568e-08
7.10174e-07
4.18652e-08
7.23252e-07
5.16031e-08
7.35457e-07
5.1341e-08
7.46852e-07
4.70914e-08
7.57302e-07
4.07034e-08
7.66747e-07
3.28533e-08
7.75289e-07
2.43337e-08
7.83024e-07
1.56482e-08
7.90002e-07
6.96666e-09
7.96251e-07
-1.64827e-09
8.0179e-07
-1.01487e-08
8.0661e-07
-1.8493e-08
8.10684e-07
-2.66354e-08
8.13969e-07
-3.45114e-08
8.16424e-07
-4.2033e-08
8.18031e-07
-4.90838e-08
-5.55531e-08
8.18798e-07
8.4871e-07
1.16214e-08
8.60344e-07
3.0231e-08
8.73616e-07
3.83316e-08
8.86513e-07
3.84441e-08
8.98807e-07
3.47972e-08
9.10305e-07
2.92059e-08
9.20857e-07
2.23008e-08
9.305e-07
1.46913e-08
9.39305e-07
6.84244e-09
9.47309e-07
-1.03728e-09
9.54522e-07
-8.86116e-09
9.60939e-07
-1.65657e-08
9.66537e-07
-2.40912e-08
9.71281e-07
-3.13792e-08
9.75133e-07
-3.83634e-08
9.78066e-07
-4.49655e-08
9.8008e-07
-5.10985e-08
-5.66814e-08
9.81209e-07
1.03283e-06
7.35077e-09
1.04354e-06
1.95238e-08
1.05673e-06
2.51343e-08
1.07018e-06
2.49949e-08
1.0833e-06
2.16848e-08
1.09578e-06
1.67177e-08
1.10741e-06
1.0674e-08
1.11811e-06
3.99282e-09
1.1279e-06
-2.9501e-09
1.13681e-06
-9.94077e-09
1.14482e-06
-1.68728e-08
1.15192e-06
-2.36719e-08
1.1581e-06
-3.0271e-08
1.16333e-06
-3.66075e-08
1.16759e-06
-4.26193e-08
1.17087e-06
-4.82433e-08
1.17318e-06
-5.3418e-08
-5.80916e-08
1.1746e-06
1.25754e-06
3.63935e-09
1.26734e-06
9.72247e-09
1.2803e-06
1.21799e-08
1.29419e-06
1.11019e-08
1.30808e-06
7.79105e-09
1.32154e-06
3.26349e-09
1.33423e-06
-2.02027e-09
1.34599e-06
-7.76927e-09
1.35677e-06
-1.37256e-08
1.36654e-06
-1.97108e-08
1.37529e-06
-2.56202e-08
1.383e-06
-3.13814e-08
1.38966e-06
-3.69311e-08
1.39526e-06
-4.22115e-08
1.39981e-06
-4.71702e-08
1.40333e-06
-5.17595e-08
1.40585e-06
-5.59383e-08
-5.96771e-08
1.40743e-06
1.53178e-06
2.90862e-10
1.54099e-06
5.10995e-10
1.55384e-06
-6.69923e-10
1.56826e-06
-3.31385e-09
1.58303e-06
-6.98445e-09
1.59753e-06
-1.12343e-08
1.61134e-06
-1.58327e-08
1.62421e-06
-2.0637e-08
1.636e-06
-2.55145e-08
1.64665e-06
-3.03588e-08
1.65613e-06
-3.50973e-08
1.66442e-06
-3.96747e-08
1.67153e-06
-4.40418e-08
1.67747e-06
-4.81539e-08
1.68227e-06
-5.19716e-08
1.68598e-06
-5.54615e-08
1.68864e-06
-5.85976e-08
-6.1365e-08
1.69032e-06
1.86653e-06
-3.05797e-09
1.87597e-06
-8.92522e-09
1.8895e-06
-1.42017e-08
1.90507e-06
-1.88852e-08
1.92123e-06
-2.31454e-08
1.93716e-06
-2.71669e-08
1.95238e-06
-3.10472e-08
1.96655e-06
-3.48116e-08
1.9795e-06
-3.84604e-08
1.99113e-06
-4.19873e-08
2.00141e-06
-4.5377e-08
2.01034e-06
-4.86057e-08
2.01794e-06
-5.16458e-08
2.02426e-06
-5.44696e-08
2.02934e-06
-5.70519e-08
2.03325e-06
-5.93713e-08
2.03606e-06
-6.14115e-08
-6.31648e-08
2.03786e-06
2.27529e-06
-7.10325e-09
2.28688e-06
-2.05126e-08
2.30339e-06
-3.07119e-08
2.32213e-06
-3.76304e-08
2.34132e-06
-4.23341e-08
2.36002e-06
-4.58642e-08
2.37769e-06
-4.87163e-08
2.39398e-06
-5.11039e-08
2.40871e-06
-5.31902e-08
2.42182e-06
-5.50942e-08
2.43331e-06
-5.68692e-08
2.44323e-06
-5.85262e-08
2.45164e-06
-6.00596e-08
2.45863e-06
-6.14575e-08
2.46428e-06
-6.27051e-08
2.4687e-06
-6.37871e-08
2.47198e-06
-6.4691e-08
-6.54079e-08
2.47422e-06
1.66679e-06
-1.11887e-08
1.67797e-06
-3.16916e-08
1.69292e-06
-4.56639e-08
1.70878e-06
-5.34882e-08
1.72424e-06
-5.77998e-08
1.73886e-06
-6.048e-08
1.75233e-06
-6.21925e-08
1.76449e-06
-6.32636e-08
1.77531e-06
-6.4003e-08
1.78482e-06
-6.46119e-08
1.79312e-06
-6.5166e-08
1.80028e-06
-6.56825e-08
1.80638e-06
-6.61599e-08
1.81151e-06
-6.6587e-08
1.81575e-06
-6.69459e-08
1.81918e-06
-6.7217e-08
1.82187e-06
-6.73821e-08
-6.74277e-08
1.82389e-06
1.45284e-06
-1.65664e-08
1.46693e-06
-4.57804e-08
1.48418e-06
-6.29102e-08
1.50102e-06
-7.03334e-08
1.51669e-06
-7.34615e-08
1.53108e-06
-7.48703e-08
1.54403e-06
-7.51444e-08
1.5555e-06
-7.47385e-08
1.56561e-06
-7.41106e-08
1.57448e-06
-7.34813e-08
1.58221e-06
-7.28996e-08
1.5889e-06
-7.23668e-08
1.59461e-06
-7.18736e-08
1.59943e-06
-7.13996e-08
1.6034e-06
-7.09182e-08
1.60658e-06
-7.04041e-08
1.60904e-06
-6.98332e-08
-6.91974e-08
1.61081e-06
1.2679e-06
-2.43777e-08
1.28669e-06
-6.45687e-08
1.30712e-06
-8.33381e-08
1.32549e-06
-8.87004e-08
1.34202e-06
-8.99924e-08
1.35687e-06
-8.97253e-08
1.36992e-06
-8.81879e-08
1.38123e-06
-8.60533e-08
1.39099e-06
-8.38718e-08
1.39931e-06
-8.18013e-08
1.40626e-06
-7.98482e-08
1.41191e-06
-7.80104e-08
1.41631e-06
-7.62803e-08
1.41955e-06
-7.46371e-08
1.42169e-06
-7.30542e-08
1.42279e-06
-7.15097e-08
1.42294e-06
-6.99784e-08
-6.84693e-08
1.42221e-06
1.10903e-06
-3.64315e-08
1.13434e-06
-8.98761e-08
1.1584e-06
-1.07398e-07
1.17875e-06
-1.09053e-07
1.19662e-06
-1.07869e-07
1.21191e-06
-1.05006e-07
1.22436e-06
-1.00647e-07
1.23419e-06
-9.58771e-08
1.2416e-06
-9.12842e-08
1.24676e-06
-8.69655e-08
1.24986e-06
-8.29394e-08
1.25107e-06
-7.92279e-08
1.25062e-06
-7.58248e-08
1.24868e-06
-7.2699e-08
1.24544e-06
-6.98121e-08
1.24106e-06
-6.71295e-08
1.23569e-06
-6.46111e-08
-6.22638e-08
1.22948e-06
9.74121e-07
-5.55806e-08
1.0076e-06
-1.23355e-07
1.03519e-06
-1.34989e-07
1.05697e-06
-1.30831e-07
1.07414e-06
-1.25037e-07
1.08605e-06
-1.16914e-07
1.09294e-06
-1.07545e-07
1.09566e-06
-9.85918e-08
1.09492e-06
-9.05457e-08
1.09135e-06
-8.33981e-08
1.08553e-06
-7.71163e-08
1.07794e-06
-7.1643e-08
1.069e-06
-6.68775e-08
1.05901e-06
-6.27073e-08
1.04822e-06
-5.90304e-08
1.03685e-06
-5.57605e-08
1.02506e-06
-5.28193e-08
-5.01782e-08
1.01298e-06
8.61623e-07
-8.5852e-08
9.0336e-07
-1.65092e-07
9.31197e-07
-1.62827e-07
9.48311e-07
-1.47945e-07
9.5586e-07
-1.32586e-07
9.5473e-07
-1.15784e-07
9.47392e-07
-1.00207e-07
9.36066e-07
-8.72655e-08
9.22227e-07
-7.67072e-08
9.06902e-07
-6.80725e-08
8.90807e-07
-6.10216e-08
8.74411e-07
-5.52467e-08
8.58003e-07
-5.04696e-08
8.41763e-07
-4.64672e-08
8.25801e-07
-4.3069e-08
8.10184e-07
-4.01434e-08
7.94953e-07
-3.75884e-08
-3.53425e-08
7.80117e-07
7.69071e-07
-1.31189e-07
8.1198e-07
-2.08001e-07
8.27547e-07
-1.78394e-07
8.25325e-07
-1.45723e-07
8.10432e-07
-1.17692e-07
7.88339e-07
-9.36914e-08
7.6377e-07
-7.56384e-08
7.39127e-07
-6.26226e-08
7.15403e-07
-5.29827e-08
6.93007e-07
-4.56767e-08
6.72048e-07
-4.00628e-08
6.52471e-07
-3.56697e-08
6.34159e-07
-3.21577e-08
6.16985e-07
-2.92931e-08
6.00829e-07
-2.69131e-08
5.85585e-07
-2.48986e-08
5.71163e-07
-2.31665e-08
-2.16535e-08
5.57474e-07
6.87566e-07
-1.88708e-07
7.09086e-07
-2.29521e-07
6.91821e-07
-1.61129e-07
6.58105e-07
-1.12007e-07
6.19262e-07
-7.88493e-08
5.82562e-07
-5.69916e-08
5.50567e-07
-4.3643e-08
5.23015e-07
-3.5071e-08
4.99109e-07
-2.90769e-08
4.7815e-07
-2.47175e-08
4.59557e-07
-2.14694e-08
4.42865e-07
-1.89781e-08
4.27721e-07
-1.70137e-08
4.13857e-07
-1.54288e-08
4.01067e-07
-1.41234e-08
3.89193e-07
-1.30246e-08
3.78113e-07
-1.20864e-08
-1.12627e-08
3.67722e-07
5.93112e-07
-2.33333e-07
5.60445e-07
-1.96854e-07
5.02435e-07
-1.03118e-07
4.47547e-07
-5.71191e-08
4.03407e-07
-3.47094e-08
3.702e-07
-2.37846e-08
3.44682e-07
-1.81256e-08
3.24111e-07
-1.45e-08
3.06967e-07
-1.19329e-08
2.92345e-07
-1.00949e-08
2.79621e-07
-8.74549e-09
2.68359e-07
-7.71672e-09
2.58254e-07
-6.90841e-09
2.49084e-07
-6.25828e-09
2.40684e-07
-5.72406e-09
2.32934e-07
-5.27392e-09
2.25739e-07
-4.89165e-09
-4.54938e-09
2.19026e-07
4.4783e-07
-2.03677e-07
3.50452e-07
-9.94761e-08
2.79851e-07
-3.25177e-08
2.35758e-07
-1.30261e-08
2.08314e-07
-7.26511e-09
1.89823e-07
-5.29358e-09
1.75852e-07
-4.15476e-09
1.64652e-07
-3.30021e-09
1.55419e-07
-2.69957e-09
1.47609e-07
-2.2846e-09
1.40845e-07
-1.98202e-09
1.34879e-07
-1.75027e-09
1.29538e-07
-1.56791e-09
1.24701e-07
-1.42124e-09
1.20278e-07
-1.30072e-09
1.16202e-07
-1.19836e-09
1.12424e-07
-1.11289e-09
-1.03171e-09
1.08906e-07
2.11998e-07
1.12522e-07
8.00045e-08
6.69784e-08
5.97133e-08
5.44197e-08
5.0265e-08
4.69648e-08
4.42652e-08
4.19806e-08
3.99986e-08
3.82483e-08
3.66804e-08
3.52591e-08
3.39584e-08
3.27601e-08
3.16472e-08
3.06154e-08
-2.61654e-10
2.61654e-10
-1.42166e-09
1.16e-09
-3.45491e-09
2.03325e-09
-6.16321e-09
2.7083e-09
-9.34711e-09
3.1839e-09
-1.28494e-08
3.50231e-09
-1.65613e-08
3.71188e-09
-2.04153e-08
3.85398e-09
-2.4374e-08
3.95868e-09
-2.84188e-08
4.04487e-09
-3.25411e-08
4.12228e-09
-3.67351e-08
4.19397e-09
-4.09937e-08
4.25861e-09
-4.53058e-08
4.31212e-09
-4.96547e-08
4.34887e-09
-5.40171e-08
4.36239e-09
-5.83629e-08
4.34587e-09
-6.26554e-08
4.29245e-09
-6.6851e-08
4.19558e-09
-7.09001e-08
4.04915e-09
-7.4748e-08
3.84786e-09
-7.83354e-08
3.58742e-09
-8.16002e-08
3.26483e-09
-8.44789e-08
2.87871e-09
-8.69084e-08
2.42944e-09
-8.88278e-08
1.91938e-09
-9.01802e-08
1.35243e-09
-9.09146e-08
7.34383e-10
-9.0988e-08
7.3382e-11
-9.03685e-08
-6.19444e-10
-8.9036e-08
-1.33254e-09
-8.69822e-08
-2.05375e-09
-8.4212e-08
-2.77026e-09
-8.07428e-08
-3.46911e-09
-7.66052e-08
-4.13766e-09
-7.1841e-08
-4.76415e-09
-6.6503e-08
-5.33803e-09
-6.06526e-08
-5.85037e-09
-5.43585e-08
-6.29411e-09
-4.76942e-08
-6.66432e-09
-4.07358e-08
-6.95837e-09
-3.35597e-08
-7.17613e-09
-2.62404e-08
-7.31927e-09
-1.88499e-08
-7.39052e-09
-1.14584e-08
-7.39149e-09
-4.13236e-09
-7.32607e-09
3.06834e-09
-7.2007e-09
1.00907e-08
-7.02238e-09
1.6889e-08
-6.79829e-09
2.34248e-08
-6.53582e-09
2.96672e-08
-6.24241e-09
3.55924e-08
-5.92518e-09
4.11832e-08
-5.59083e-09
4.64288e-08
-5.24551e-09
5.13235e-08
-4.89478e-09
5.58671e-08
-4.54352e-09
6.0063e-08
-4.19598e-09
6.39188e-08
-3.85572e-09
6.74445e-08
-3.5257e-09
7.06527e-08
-3.20825e-09
7.35579e-08
-2.90517e-09
7.61756e-08
-2.61777e-09
7.85226e-08
-2.34693e-09
8.06157e-08
-2.09314e-09
8.24723e-08
-1.85656e-09
8.41094e-08
-1.63712e-09
8.55439e-08
-1.4345e-09
8.67921e-08
-1.2482e-09
8.78697e-08
-1.07763e-09
8.87918e-08
-9.22055e-10
8.95725e-08
-7.80695e-10
9.02252e-08
-6.52717e-10
9.07625e-08
-5.37268e-10
9.1196e-08
-4.33491e-10
9.15365e-08
-3.40531e-10
9.1794e-08
-2.57558e-10
9.19778e-08
-1.83759e-10
9.20962e-08
-1.18352e-10
9.21567e-08
-6.05753e-11
9.21678e-08
-1.10853e-11
9.2133e-08
3.47764e-11
9.20596e-08
7.34614e-11
9.1953e-08
1.06591e-10
9.18176e-08
1.35428e-10
9.16574e-08
1.60144e-10
9.14763e-08
1.8116e-10
9.12774e-08
1.9889e-10
9.10637e-08
2.13707e-10
9.08377e-08
2.25953e-10
9.06018e-08
2.35952e-10
9.03578e-08
2.44001e-10
9.01074e-08
2.50357e-10
8.98521e-08
2.5525e-10
8.95933e-08
2.58867e-10
8.93319e-08
2.6138e-10
8.9069e-08
2.62939e-10
8.88053e-08
2.63681e-10
8.85415e-08
2.63744e-10
8.82783e-08
2.63241e-10
8.8016e-08
2.6228e-10
8.77551e-08
2.6095e-10
8.74957e-08
2.59332e-10
8.72382e-08
2.57487e-10
8.69828e-08
2.55476e-10
8.67294e-08
2.53342e-10
8.64783e-08
2.51131e-10
8.62294e-08
2.4888e-10
8.59828e-08
2.46625e-10
8.57384e-08
2.44394e-10
8.54962e-08
2.42217e-10
8.52561e-08
2.40115e-10
8.50179e-08
2.38105e-10
8.47817e-08
2.362e-10
8.45473e-08
2.3441e-10
8.43146e-08
2.32742e-10
8.40834e-08
2.31204e-10
8.38536e-08
2.29796e-10
8.36251e-08
2.28529e-10
8.33977e-08
2.27396e-10
8.31713e-08
2.26405e-10
8.29457e-08
2.25545e-10
8.27209e-08
2.24813e-10
8.24967e-08
2.24192e-10
8.2273e-08
2.23676e-10
8.20498e-08
2.23253e-10
8.18269e-08
2.22916e-10
8.16042e-08
2.22673e-10
8.13817e-08
2.2252e-10
8.11592e-08
2.22462e-10
8.09367e-08
2.22505e-10
8.07141e-08
2.22642e-10
8.04912e-08
2.22879e-10
8.0268e-08
2.23205e-10
8.00444e-08
2.23622e-10
7.98202e-08
2.24124e-10
7.95955e-08
2.2471e-10
7.93702e-08
2.25375e-10
7.9144e-08
2.26126e-10
7.89171e-08
2.26958e-10
7.86892e-08
2.27873e-10
7.84603e-08
2.28871e-10
7.82304e-08
2.29946e-10
7.79993e-08
2.31095e-10
7.7767e-08
2.32305e-10
7.75334e-08
2.33572e-10
7.72985e-08
2.3489e-10
7.70623e-08
2.36262e-10
7.68246e-08
2.37695e-10
7.65854e-08
2.39199e-10
7.63446e-08
2.40787e-10
7.61021e-08
2.42475e-10
7.58578e-08
2.44282e-10
7.56116e-08
2.46232e-10
7.53632e-08
2.48349e-10
7.51126e-08
2.50669e-10
7.48593e-08
2.53231e-10
7.46032e-08
2.56093e-10
7.43439e-08
2.59319e-10
7.40809e-08
2.62996e-10
7.38137e-08
2.67232e-10
7.35415e-08
2.72169e-10
7.32635e-08
2.77982e-10
7.29786e-08
2.84902e-10
7.26854e-08
2.93217e-10
7.23821e-08
3.03305e-10
7.20665e-08
3.15654e-10
7.17356e-08
3.30896e-10
7.13857e-08
3.4987e-10
7.1012e-08
3.73682e-10
7.06082e-08
4.03823e-10
7.01659e-08
4.42329e-10
6.96738e-08
4.92062e-10
6.91168e-08
5.57044e-10
6.84731e-08
6.43705e-10
6.77125e-08
7.60568e-10
6.67826e-08
9.29917e-10
6.5619e-08
1.1636e-09
6.39649e-08
1.6541e-09
6.16744e-08
2.29044e-09
5.0273e-09
5.66471e-08
-1.36704e-09
1.62869e-09
-4.87982e-09
4.67279e-09
-1.00497e-08
7.20316e-09
-1.64412e-08
9.09974e-09
-2.36825e-08
1.04253e-08
-3.14853e-08
1.13051e-08
-3.96412e-08
1.18677e-08
-4.80078e-08
1.22206e-08
-5.6491e-08
1.24419e-08
-6.50278e-08
1.25817e-08
-7.35724e-08
1.26669e-08
-8.20856e-08
1.27072e-08
-9.05278e-08
1.27008e-08
-9.88543e-08
1.26386e-08
-1.07013e-07
1.25072e-08
-1.14942e-07
1.22913e-08
-1.22571e-07
1.19749e-08
-1.29821e-07
1.15429e-08
-1.36607e-07
1.09812e-08
-1.42836e-07
1.0278e-08
-1.48412e-07
9.4244e-09
-1.53239e-07
8.41458e-09
-1.57221e-07
7.24674e-09
-1.60266e-07
5.92335e-09
-1.62288e-07
4.45138e-09
-1.63212e-07
2.84336e-09
-1.62973e-07
1.11362e-09
-1.61523e-07
-7.15992e-10
-1.58828e-07
-2.62131e-09
-1.54872e-07
-4.57567e-09
-1.49654e-07
-6.54976e-09
-1.43195e-07
-8.51283e-09
-1.35532e-07
-1.04337e-08
-1.26719e-07
-1.2282e-08
-1.16828e-07
-1.40288e-08
-1.05944e-07
-1.56478e-08
-9.4166e-08
-1.71161e-08
-8.16017e-08
-1.84147e-08
-6.83665e-08
-1.95293e-08
-5.45807e-08
-2.04501e-08
-4.03654e-08
-2.11737e-08
-2.58413e-08
-2.17001e-08
-1.11326e-08
-2.2028e-08
3.63966e-09
-2.21628e-08
1.8363e-08
-2.21148e-08
3.29347e-08
-2.18978e-08
4.72602e-08
-2.15261e-08
6.12544e-08
-2.10166e-08
7.48433e-08
-2.03871e-08
8.79633e-08
-1.96559e-08
1.00562e-07
-1.8841e-08
1.12597e-07
-1.796e-08
1.24035e-07
-1.70295e-08
1.34855e-07
-1.6065e-08
1.45041e-07
-1.50808e-08
1.54587e-07
-1.40895e-08
1.63494e-07
-1.31026e-08
1.71767e-07
-1.21296e-08
1.79421e-07
-1.1179e-08
1.8647e-07
-1.02574e-08
1.92935e-07
-9.37059e-09
1.9884e-07
-8.52266e-09
2.0421e-07
-7.71681e-09
2.09072e-07
-6.95517e-09
2.13455e-07
-6.23902e-09
2.17386e-07
-5.56886e-09
2.20896e-07
-4.94454e-09
2.24013e-07
-4.36539e-09
2.26766e-07
-3.83028e-09
2.29182e-07
-3.33776e-09
2.31287e-07
-2.88608e-09
2.33108e-07
-2.47331e-09
2.34668e-07
-2.09738e-09
2.35991e-07
-1.75613e-09
2.37097e-07
-1.44738e-09
2.38009e-07
-1.16891e-09
2.38744e-07
-9.18579e-10
2.39319e-07
-6.94254e-10
2.39753e-07
-4.93929e-10
2.40057e-07
-3.15716e-10
2.40249e-07
-1.57246e-10
2.40339e-07
-1.57225e-11
2.40339e-07
1.06172e-10
2.4026e-07
2.14683e-10
2.40111e-07
3.09289e-10
2.399e-07
3.91674e-10
2.39636e-07
4.63031e-10
2.39325e-07
5.2453e-10
2.38974e-07
5.77237e-10
2.38588e-07
6.22151e-10
2.38172e-07
6.60171e-10
2.3773e-07
6.9212e-10
2.37266e-07
7.18728e-10
2.36785e-07
7.40653e-10
2.36287e-07
7.58476e-10
2.35778e-07
7.72719e-10
2.35257e-07
7.83861e-10
2.34729e-07
7.92325e-10
2.34194e-07
7.98515e-10
2.33653e-07
8.02769e-10
2.33109e-07
8.05407e-10
2.32561e-07
8.06693e-10
2.32012e-07
8.06876e-10
2.31461e-07
8.06158e-10
2.3091e-07
8.04719e-10
2.30358e-07
8.0272e-10
2.29807e-07
8.00301e-10
2.29256e-07
7.97588e-10
2.28706e-07
7.94684e-10
2.28156e-07
7.91691e-10
2.27608e-07
7.88681e-10
2.2706e-07
7.85725e-10
2.26513e-07
7.82876e-10
2.25967e-07
7.80186e-10
2.25423e-07
7.77678e-10
2.24878e-07
7.75393e-10
2.24335e-07
7.73351e-10
2.23792e-07
7.71566e-10
2.23249e-07
7.70061e-10
2.22707e-07
7.68843e-10
2.22164e-07
7.67911e-10
2.21622e-07
7.67265e-10
2.21079e-07
7.66892e-10
2.20536e-07
7.66782e-10
2.19992e-07
7.66929e-10
2.19448e-07
7.67322e-10
2.18903e-07
7.67958e-10
2.18356e-07
7.68844e-10
2.17809e-07
7.69982e-10
2.1726e-07
7.71372e-10
2.1671e-07
7.73013e-10
2.16158e-07
7.74902e-10
2.15604e-07
7.7703e-10
2.15048e-07
7.79394e-10
2.1449e-07
7.81986e-10
2.1393e-07
7.84792e-10
2.13368e-07
7.8782e-10
2.12803e-07
7.91056e-10
2.12235e-07
7.94504e-10
2.11665e-07
7.98161e-10
2.11092e-07
8.02028e-10
2.10516e-07
8.06091e-10
2.09936e-07
8.10351e-10
2.09354e-07
8.14792e-10
2.08768e-07
8.19417e-10
2.08179e-07
8.24219e-10
2.07586e-07
8.29211e-10
2.06989e-07
8.3441e-10
2.06388e-07
8.39847e-10
2.05784e-07
8.45559e-10
2.05174e-07
8.5159e-10
2.04561e-07
8.58001e-10
2.03942e-07
8.64849e-10
2.03318e-07
8.72229e-10
2.02689e-07
8.80237e-10
2.02053e-07
8.8901e-10
2.0141e-07
8.98707e-10
2.0076e-07
9.09547e-10
2.00101e-07
9.21794e-10
1.99433e-07
9.35794e-10
1.98753e-07
9.51986e-10
1.9806e-07
9.70922e-10
1.97351e-07
9.93321e-10
1.96625e-07
1.0201e-09
1.95875e-07
1.05244e-09
1.95099e-07
1.09189e-09
1.9429e-07
1.14043e-09
1.93439e-07
1.20071e-09
1.92536e-07
1.27622e-09
1.91568e-07
1.37167e-09
1.90517e-07
1.49348e-09
1.89359e-07
1.65058e-09
1.8806e-07
1.85573e-09
1.86576e-07
2.12821e-09
1.8484e-07
2.49655e-09
1.82754e-07
3.01557e-09
1.80156e-07
3.76128e-09
1.76802e-07
5.00814e-09
1.71983e-07
7.11007e-09
1.14623e-08
1.65548e-07
-2.05062e-09
3.67931e-09
-7.06247e-09
9.68463e-09
-1.41766e-08
1.43173e-08
-2.27441e-08
1.76673e-08
-3.22751e-08
1.99562e-08
-4.24093e-08
2.14392e-08
-5.28896e-08
2.23481e-08
-6.3537e-08
2.28679e-08
-7.42265e-08
2.31314e-08
-8.48686e-08
2.32238e-08
-9.53933e-08
2.31916e-08
-1.05739e-07
2.30533e-08
-1.15847e-07
2.28083e-08
-1.25652e-07
2.24436e-08
-1.35084e-07
2.19394e-08
-1.44066e-07
2.12729e-08
-1.52512e-07
2.04208e-08
-1.6033e-07
1.93611e-08
-1.67423e-07
1.80747e-08
-1.73692e-07
1.65466e-08
-1.79035e-07
1.4767e-08
-1.83352e-07
1.27316e-08
-1.86548e-07
1.0443e-08
-1.88535e-07
7.91058e-09
-1.89235e-07
5.15112e-09
-1.88581e-07
2.18917e-09
-1.8652e-07
-9.46962e-10
-1.83015e-07
-4.22142e-09
-1.78043e-07
-7.59301e-09
-1.71602e-07
-1.10163e-08
-1.63709e-07
-1.44427e-08
-1.544e-07
-1.78224e-08
-1.43728e-07
-2.11053e-08
-1.31767e-07
-2.42434e-08
-1.18604e-07
-2.71916e-08
-1.04342e-07
-2.99095e-08
-8.90962e-08
-3.23621e-08
-7.29897e-08
-3.45213e-08
-5.61531e-08
-3.63658e-08
-3.87196e-08
-3.78836e-08
-2.08247e-08
-3.90686e-08
-2.61145e-09
-3.99134e-08
1.57843e-08
-4.04238e-08
3.42357e-08
-4.06142e-08
5.26213e-08
-4.05005e-08
7.08284e-08
-4.01048e-08
8.87545e-08
-3.94523e-08
1.06308e-07
-3.85701e-08
1.23408e-07
-3.74868e-08
1.39983e-07
-3.62315e-08
1.55975e-07
-3.48331e-08
1.71335e-07
-3.33195e-08
1.86023e-07
-3.17175e-08
2.0001e-07
-3.0052e-08
2.13275e-07
-2.83462e-08
2.25807e-07
-2.66208e-08
2.37599e-07
-2.48948e-08
2.48654e-07
-2.31844e-08
2.58978e-07
-2.15038e-08
2.68586e-07
-1.98651e-08
2.77494e-07
-1.82782e-08
2.85722e-07
-1.67511e-08
2.93295e-07
-1.529e-08
3.0024e-07
-1.38996e-08
3.06584e-07
-1.25829e-08
3.12357e-07
-1.13419e-08
3.17589e-07
-1.01772e-08
3.22313e-07
-9.08877e-09
3.26558e-07
-8.07547e-09
3.30356e-07
-7.13563e-09
3.33737e-07
-6.267e-09
3.3673e-07
-5.46692e-09
3.39365e-07
-4.73238e-09
3.41669e-07
-4.06015e-09
3.43669e-07
-3.44683e-09
3.45389e-07
-2.88894e-09
3.46853e-07
-2.38297e-09
3.48084e-07
-1.92542e-09
3.49103e-07
-1.51285e-09
3.49929e-07
-1.14187e-09
3.50581e-07
-8.09159e-10
3.51077e-07
-5.11499e-10
3.5143e-07
-2.46727e-10
3.51656e-07
-1.08489e-11
3.51767e-07
1.97776e-10
3.51776e-07
3.82243e-10
3.51695e-07
5.4457e-10
3.51532e-07
6.86997e-10
3.51298e-07
8.1152e-10
3.51e-07
9.19986e-10
3.50646e-07
1.01412e-09
3.50243e-07
1.09548e-09
3.49796e-07
1.1655e-09
3.49311e-07
1.22546e-09
3.48793e-07
1.27653e-09
3.48246e-07
1.31976e-09
3.47674e-07
1.3561e-09
3.4708e-07
1.38641e-09
3.46467e-07
1.41148e-09
3.45838e-07
1.43203e-09
3.45195e-07
1.44868e-09
3.44539e-07
1.46199e-09
3.43874e-07
1.47246e-09
3.43199e-07
1.48055e-09
3.42517e-07
1.48664e-09
3.41829e-07
1.49107e-09
3.41135e-07
1.49415e-09
3.40437e-07
1.49615e-09
3.39734e-07
1.49731e-09
3.39028e-07
1.49782e-09
3.38319e-07
1.49789e-09
3.37607e-07
1.49765e-09
3.36892e-07
1.49723e-09
3.36176e-07
1.49676e-09
3.35457e-07
1.49632e-09
3.34737e-07
1.49599e-09
3.34014e-07
1.49584e-09
3.3329e-07
1.49593e-09
3.32563e-07
1.49629e-09
3.31835e-07
1.49696e-09
3.31105e-07
1.49797e-09
3.30373e-07
1.49935e-09
3.29639e-07
1.50107e-09
3.28903e-07
1.50317e-09
3.28164e-07
1.50563e-09
3.27423e-07
1.50846e-09
3.26679e-07
1.51165e-09
3.25933e-07
1.51522e-09
3.25183e-07
1.51918e-09
3.24431e-07
1.52353e-09
3.23676e-07
1.52826e-09
3.22918e-07
1.53339e-09
3.22156e-07
1.53889e-09
3.2139e-07
1.54477e-09
3.20621e-07
1.55102e-09
3.19849e-07
1.55762e-09
3.19072e-07
1.56458e-09
3.18291e-07
1.57189e-09
3.17506e-07
1.57954e-09
3.16716e-07
1.58754e-09
3.15923e-07
1.59588e-09
3.15124e-07
1.60456e-09
3.14321e-07
1.61356e-09
3.13513e-07
1.6229e-09
3.127e-07
1.63256e-09
3.11881e-07
1.64256e-09
3.11058e-07
1.65292e-09
3.10228e-07
1.66367e-09
3.09393e-07
1.67487e-09
3.08552e-07
1.68659e-09
3.07705e-07
1.69889e-09
3.06851e-07
1.71188e-09
3.0599e-07
1.72569e-09
3.05122e-07
1.74046e-09
3.04246e-07
1.75639e-09
3.03361e-07
1.77372e-09
3.02467e-07
1.79275e-09
3.01563e-07
1.81387e-09
3.00647e-07
1.83757e-09
2.99718e-07
1.86448e-09
2.98775e-07
1.8954e-09
2.97815e-07
1.93135e-09
2.96834e-07
1.97365e-09
2.9583e-07
2.02397e-09
2.94798e-07
2.0845e-09
2.93732e-07
2.15803e-09
2.92624e-07
2.24825e-09
2.91465e-07
2.36e-09
2.90242e-07
2.49965e-09
2.88937e-07
2.67584e-09
2.87531e-07
2.90024e-09
2.85992e-07
3.18914e-09
2.84282e-07
3.56558e-09
2.82347e-07
4.06368e-09
2.80108e-07
4.73502e-09
2.77458e-07
5.66622e-09
2.74215e-07
7.00412e-09
2.70187e-07
9.03626e-09
2.64757e-07
1.25396e-08
1.76598e-08
2.5856e-07
-2.34076e-09
6.02007e-09
-8.05232e-09
1.53962e-08
-1.61166e-08
2.23815e-08
-2.57603e-08
2.7311e-08
-3.64122e-08
3.06082e-08
-4.76624e-08
3.26894e-08
-5.92235e-08
3.39093e-08
-7.08976e-08
3.4542e-08
-8.25475e-08
3.47813e-08
-9.40744e-08
3.47506e-08
-1.05401e-07
3.45185e-08
-1.16461e-07
3.41133e-08
-1.27189e-07
3.35361e-08
-1.37516e-07
3.2771e-08
-1.47369e-07
3.17923e-08
-1.56667e-07
3.05701e-08
-1.6532e-07
2.9074e-08
-1.73234e-07
2.72759e-08
-1.80311e-07
2.51516e-08
-1.86448e-07
2.26833e-08
-1.91541e-07
1.98602e-08
-1.9549e-07
1.66799e-08
-1.98196e-07
1.31492e-08
-1.9957e-07
9.28444e-09
-1.99531e-07
5.11211e-09
-1.9801e-07
6.68722e-10
-1.94952e-07
-4.00508e-09
-1.90318e-07
-8.85565e-09
-1.84088e-07
-1.38227e-08
-1.76264e-07
-1.88405e-08
-1.66867e-07
-2.38393e-08
-1.55942e-07
-2.87478e-08
-1.43552e-07
-3.34956e-08
-1.2978e-07
-3.8015e-08
-1.14728e-07
-4.22436e-08
-9.85119e-08
-4.61259e-08
-8.1259e-08
-4.9615e-08
-6.3107e-08
-5.26733e-08
-4.41983e-08
-5.52745e-08
-2.46792e-08
-5.74027e-08
-4.70061e-09
-5.90472e-08
1.55884e-08
-6.02025e-08
3.6049e-08
-6.08843e-08
5.65468e-08
-6.1112e-08
7.69586e-08
-6.09123e-08
9.71713e-08
-6.03176e-08
1.17083e-07
-5.93637e-08
1.36602e-07
-5.8089e-08
1.55648e-07
-5.65333e-08
1.74153e-07
-5.47366e-08
1.92059e-07
-5.27385e-08
2.09316e-07
-5.05769e-08
2.25887e-07
-4.82881e-08
2.41741e-07
-4.59061e-08
2.56857e-07
-4.34621e-08
2.7122e-07
-4.09845e-08
2.84824e-07
-3.84987e-08
2.97667e-07
-3.60274e-08
3.09754e-07
-3.35901e-08
3.21092e-07
-3.12037e-08
3.31696e-07
-2.88823e-08
3.41583e-07
-2.66376e-08
3.50771e-07
-2.44789e-08
3.59285e-07
-2.24134e-08
3.67149e-07
-2.04465e-08
3.74389e-07
-1.85817e-08
3.81033e-07
-1.6821e-08
3.87109e-07
-1.51652e-08
3.92647e-07
-1.36137e-08
3.97677e-07
-1.21652e-08
4.02227e-07
-1.08175e-08
4.06328e-07
-9.56745e-09
4.10007e-07
-8.41176e-09
4.13294e-07
-7.34648e-09
4.16214e-07
-6.36742e-09
4.18795e-07
-5.47013e-09
4.21062e-07
-4.65008e-09
4.2304e-07
-3.90262e-09
4.2475e-07
-3.22313e-09
4.26215e-07
-2.60701e-09
4.27456e-07
-2.04978e-09
4.28491e-07
-1.54706e-09
4.29339e-07
-1.09479e-09
4.30017e-07
-6.88831e-10
4.3054e-07
-3.2536e-10
4.30923e-07
-5.67387e-13
4.31179e-07
2.88812e-10
4.3132e-07
5.45926e-10
4.31358e-07
7.73781e-10
4.31303e-07
9.75207e-10
4.31164e-07
1.15281e-09
4.3095e-07
1.30901e-09
4.3067e-07
1.44601e-09
4.30329e-07
1.56585e-09
4.29936e-07
1.67037e-09
4.29494e-07
1.76125e-09
4.2901e-07
1.84004e-09
4.28488e-07
1.90812e-09
4.27933e-07
1.96676e-09
4.27348e-07
2.01713e-09
4.26736e-07
2.06023e-09
4.26101e-07
2.09703e-09
4.25446e-07
2.12836e-09
4.24771e-07
2.15495e-09
4.2408e-07
2.17749e-09
4.23375e-07
2.19655e-09
4.22656e-07
2.21269e-09
4.21926e-07
2.22634e-09
4.21185e-07
2.23795e-09
4.20435e-07
2.24787e-09
4.19677e-07
2.25642e-09
4.18911e-07
2.26389e-09
4.18137e-07
2.27053e-09
4.17358e-07
2.27653e-09
4.16572e-07
2.28209e-09
4.1578e-07
2.28737e-09
4.14984e-07
2.29249e-09
4.14182e-07
2.29758e-09
4.13376e-07
2.30274e-09
4.12565e-07
2.30805e-09
4.11749e-07
2.31356e-09
4.10929e-07
2.31934e-09
4.10105e-07
2.32542e-09
4.09276e-07
2.33184e-09
4.08443e-07
2.33862e-09
4.07606e-07
2.34577e-09
4.06764e-07
2.35334e-09
4.05918e-07
2.36133e-09
4.05067e-07
2.36977e-09
4.04212e-07
2.37866e-09
4.03352e-07