/*--------------------------------*- C++ -*----------------------------------*\
  =========                 |
  \\      /  F ield         | OpenFOAM: The Open Source CFD Toolbox
   \\    /   O peration     | Website:  https://openfoam.org
    \\  /    A nd           | Version:  8
     \\/     M anipulation  |
\*---------------------------------------------------------------------------*/
FoamFile
{
    version     2.0;
    format      ascii;
    class       volVectorField;
    location    "0.14";
    object      U;
}
// * * * * * * * * * * * * * * * * * * * * * * * * * * * * * * * * * * * * * //

dimensions      [0 1 -1 0 0 0 0];

internalField   nonuniform List<vector> 
12225
(
(0.453348 0.0537137 0)
(0.270127 0.0151194 0)
(0.17162 0.00120036 0)
(0.132921 0.000281416 0)
(0.121062 0.000347505 0)
(0.112658 0.000292849 0)
(0.106269 0.000186776 0)
(0.102092 0.000110296 0)
(0.0994859 5.90073e-05 0)
(0.0980049 1.39612e-05 0)
(0.0974578 -2.97049e-05 0)
(0.0977556 -7.86207e-05 0)
(0.0988825 -0.000135759 0)
(0.100909 -0.000212071 0)
(0.104097 -0.000345356 0)
(0.108925 -0.000600172 0)
(0.118631 -0.00199478 0)
(0.130732 -0.0154717 0)
(0.840851 0.141442 0)
(0.678787 0.0759424 0)
(0.503849 0.0244375 0)
(0.401373 0.0102045 0)
(0.358069 0.00567242 0)
(0.332167 0.00397822 0)
(0.313395 0.00283696 0)
(0.300556 0.0019157 0)
(0.292173 0.00120926 0)
(0.287063 0.000621516 0)
(0.284606 7.60254e-05 0)
(0.284493 -0.000481835 0)
(0.286617 -0.00110339 0)
(0.291066 -0.00187955 0)
(0.298296 -0.00301152 0)
(0.309045 -0.00506734 0)
(0.326716 -0.00992612 0)
(0.34712 -0.0308042 0)
(0.98879 0.16484 0)
(0.943784 0.12301 0)
(0.79462 0.0593374 0)
(0.664996 0.0313579 0)
(0.59259 0.0183004 0)
(0.54882 0.0121743 0)
(0.518183 0.00865868 0)
(0.496744 0.00605879 0)
(0.482217 0.00401418 0)
(0.472881 0.00231234 0)
(0.467726 0.00076281 0)
(0.466199 -0.000777089 0)
(0.468053 -0.00244558 0)
(0.473284 -0.00444361 0)
(0.482282 -0.00714554 0)
(0.49556 -0.0114588 0)
(0.515135 -0.019516 0)
(0.53619 -0.0411272 0)
(1.02801 0.14732 0)
(1.07559 0.143767 0)
(0.999863 0.0911402 0)
(0.889745 0.0583927 0)
(0.808232 0.0376347 0)
(0.752763 0.0253914 0)
(0.712965 0.0180674 0)
(0.684381 0.0128949 0)
(0.664332 0.00883779 0)
(0.650827 0.00545029 0)
(0.642619 0.00239784 0)
(0.63897 -0.000583062 0)
(0.639488 -0.00373774 0)
(0.64402 -0.00738414 0)
(0.652721 -0.0120368 0)
(0.665669 -0.0187502 0)
(0.683533 -0.0293657 0)
(0.701591 -0.0494556 0)
(1.02689 0.118359 0)
(1.11554 0.143362 0)
(1.10963 0.109518 0)
(1.04588 0.0813336 0)
(0.980579 0.0584404 0)
(0.927509 0.0416736 0)
(0.885736 0.0303322 0)
(0.853975 0.0221065 0)
(0.830687 0.0155995 0)
(0.814266 0.0101267 0)
(0.803544 0.00520966 0)
(0.797766 0.000461049 0)
(0.796468 -0.00446861 0)
(0.799369 -0.0099899 0)
(0.806363 -0.0166864 0)
(0.817119 -0.0255585 0)
(0.831449 -0.0379361 0)
(0.845108 -0.0565425 0)
(1.01645 0.0909994 0)
(1.1077 0.130578 0)
(1.14468 0.11334 0)
(1.12732 0.0938444 0)
(1.09229 0.0742923 0)
(1.05562 0.0567701 0)
(1.02186 0.0430702 0)
(0.993465 0.0323512 0)
(0.971166 0.0235285 0)
(0.954562 0.0159305 0)
(0.943042 0.00904223 0)
(0.936104 0.00240896 0)
(0.933363 -0.00438933 0)
(0.934509 -0.01181 0)
(0.939268 -0.0204284 0)
(0.947058 -0.0310699 0)
(0.957289 -0.0445577 0)
(0.966428 -0.0620532 0)
(1.00719 0.0684651 0)
(1.08338 0.112459 0)
(1.13659 0.1068 0)
(1.15032 0.0954308 0)
(1.14412 0.0815863 0)
(1.12941 0.0665344 0)
(1.11085 0.052932 0)
(1.09218 0.0412299 0)
(1.07583 0.0309698 0)
(1.06271 0.0217433 0)
(1.05304 0.0131673 0)
(1.04679 0.0048337 0)
(1.04383 -0.00367257 0)
(1.04395 -0.0127942 0)
(1.04684 -0.0230329 0)
(1.05187 -0.0349955 0)
(1.05837 -0.0491 0)
(1.06363 -0.0657301 0)
(1.00087 0.0509637 0)
(1.05861 0.0936595 0)
(1.11163 0.095133 0)
(1.13964 0.0893354 0)
(1.15206 0.0806539 0)
(1.15571 0.0692893 0)
(1.15304 0.0575197 0)
(1.14681 0.0463872 0)
(1.1396 0.0359107 0)
(1.13297 0.0259615 0)
(1.1277 0.0163598 0)
(1.12421 0.00683408 0)
(1.12266 -0.00294427 0)
(1.123 -0.0133394 0)
(1.12504 -0.024733 0)
(1.12824 -0.037516 0)
(1.13203 -0.051821 0)
(1.13452 -0.0676765 0)
(0.996852 0.0378222 0)
(1.03878 0.0764871 0)
(1.08487 0.082096 0)
(1.11604 0.0795022 0)
(1.13653 0.074227 0)
(1.15078 0.0660855 0)
(1.15954 0.0565919 0)
(1.16395 0.0468427 0)
(1.16578 0.0370634 0)
(1.16641 0.0272662 0)
(1.16672 0.0174131 0)
(1.16726 0.0073721 0)
(1.16837 -0.00306532 0)
(1.17014 -0.0141494 0)
(1.17248 -0.0261242 0)
(1.17504 -0.0391926 0)
(1.17741 -0.0533074 0)
(1.17844 -0.0683463 0)
(0.9943 0.0281125 0)
(1.02428 0.0616298 0)
(1.06218 0.0694975 0)
(1.09143 0.0686925 0)
(1.11334 0.0652607 0)
(1.13138 0.059271 0)
(1.14579 0.0516266 0)
(1.15666 0.043274 0)
(1.16483 0.0344962 0)
(1.17121 0.0253315 0)
(1.17641 0.0157873 0)
(1.18087 0.0058156 0)
(1.18489 -0.00469369 0)
(1.18861 -0.0158843 0)
(1.192 -0.0278766 0)
(1.19485 -0.0407303 0)
(1.19692 -0.0543012 0)
(1.19761 -0.068407 0)
(0.992666 0.0209547 0)
(1.01401 0.0490747 0)
(1.04455 0.0579158 0)
(1.07041 0.0581969 0)
(1.09094 0.0556945 0)
(1.10894 0.050952 0)
(1.12478 0.0445285 0)
(1.13818 0.0372035 0)
(1.14944 0.0292873 0)
(1.15902 0.0208204 0)
(1.16728 0.0118069 0)
(1.17443 0.0022313 0)
(1.18065 -0.0079577 0)
(1.18602 -0.0188272 0)
(1.19053 -0.0304078 0)
(1.19403 -0.0426687 0)
(1.19639 -0.0554301 0)
(1.19742 -0.0684911 0)
(0.991715 0.0159532 0)
(1.0074 0.0393371 0)
(1.03233 0.048237 0)
(1.05501 0.049163 0)
(1.07367 0.0471468 0)
(1.0904 0.0430754 0)
(1.10569 0.0373619 0)
(1.11928 0.0306615 0)
(1.13122 0.0233103 0)
(1.14178 0.0153665 0)
(1.15114 0.00683206 0)
(1.15938 -0.0022967 0)
(1.16658 -0.01204 0)
(1.17276 -0.0224174 0)
(1.17787 -0.0334092 0)
(1.18183 -0.0449418 0)
(1.18453 -0.0568385 0)
(1.186 -0.0689028 0)
(0.991094 0.0121367 0)
(1.00263 0.0310817 0)
(1.02295 0.0393698 0)
(1.04275 0.0406772 0)
(1.0596 0.0389915 0)
(1.07483 0.0353622 0)
(1.08901 0.0301565 0)
(1.10194 0.0239193 0)
(1.11357 0.0169941 0)
(1.12405 0.00947109 0)
(1.13349 0.00136304 0)
(1.14192 -0.00732337 0)
(1.14933 -0.0165861 0)
(1.1557 -0.026411 0)
(1.16099 -0.0367508 0)
(1.16512 -0.0475134 0)
(1.16802 -0.0585393 0)
(1.16983 -0.0696525 0)
(0.99063 0.00884117 0)
(0.998795 0.0232254 0)
(1.01492 0.0302617 0)
(1.03181 0.0316268 0)
(1.04678 0.0301172 0)
(1.06045 0.0267962 0)
(1.07332 0.0220195 0)
(1.08523 0.0162055 0)
(1.09606 0.00967315 0)
(1.1059 0.00254742 0)
(1.11481 -0.00513442 0)
(1.12281 -0.0133482 0)
(1.12987 -0.0220669 0)
(1.13595 -0.0312513 0)
(1.14101 -0.0408394 0)
(1.14501 -0.0507361 0)
(1.1479 -0.0608083 0)
(1.14985 -0.0709091 0)
(0.990293 0.00598273 0)
(0.995873 0.0159413 0)
(1.00845 0.0211711 0)
(1.02255 0.0221616 0)
(1.03564 0.0206166 0)
(1.04779 0.0174538 0)
(1.05933 0.0130157 0)
(1.07013 0.00760318 0)
(1.08002 0.00147739 0)
(1.08901 -0.00522168 0)
(1.09714 -0.0124323 0)
(1.10442 -0.0201113 0)
(1.11082 -0.0282121 0)
(1.11632 -0.0366799 0)
(1.1209 -0.0454458 0)
(1.12454 -0.0544212 0)
(1.12721 -0.0635005 0)
(1.1291 -0.0725718 0)
(0.990056 0.00348767 0)
(0.993774 0.00928266 0)
(1.00357 0.0122604 0)
(1.01521 0.0123888 0)
(1.02649 0.0105429 0)
(1.03721 0.00737158 0)
(1.04749 0.00316222 0)
(1.05719 -0.00188075 0)
(1.06613 -0.00757015 0)
(1.07425 -0.0137795 0)
(1.08156 -0.020436 0)
(1.08806 -0.0274852 0)
(1.09374 -0.034872 0)
(1.09858 -0.0425359 0)
(1.1026 -0.0504094 0)
(1.10579 -0.0584164 0)
(1.10815 -0.066475 0)
(1.10984 -0.0745055 0)
(0.9899 0.00124625 0)
(0.992382 0.00311015 0)
(1.00021 0.0035212 0)
(1.0099 0.0023338 0)
(1.01964 -0.000105492 0)
(1.02908 -0.00345833 0)
(1.03823 -0.00754808 0)
(1.04693 -0.0122581 0)
(1.05496 -0.0174784 0)
(1.06224 -0.0231202 0)
(1.06876 -0.0291208 0)
(1.07451 -0.0354285 0)
(1.07951 -0.041991 0)
(1.08374 -0.0487526 0)
(1.08722 -0.0556544 0)
(1.08997 -0.062635 0)
(1.09202 -0.0696327 0)
(1.09346 -0.0765921 0)
(0.989818 -0.000886295 0)
(0.991649 -0.00287817 0)
(0.998389 -0.00528463 0)
(1.0069 -0.00816214 0)
(1.01558 -0.0114675 0)
(1.02408 -0.015157 0)
(1.03236 -0.0192103 0)
(1.04022 -0.0236055 0)
(1.04747 -0.0283114 0)
(1.05402 -0.0332954 0)
(1.05984 -0.0385263 0)
(1.06494 -0.0439707 0)
(1.06934 -0.0495901 0)
(1.07303 -0.0553418 0)
(1.07606 -0.0611809 0)
(1.07845 -0.0670614 0)
(1.08022 -0.0729383 0)
(1.08146 -0.0787726 0)
(0.989811 -0.00324485 0)
(0.991637 -0.00949844 0)
(0.998396 -0.0150563 0)
(1.00689 -0.0198408 0)
(1.01543 -0.0241046 0)
(1.02366 -0.0281386 0)
(1.03157 -0.0321117 0)
(1.03902 -0.0361067 0)
(1.04583 -0.0401804 0)
(1.05191 -0.0443718 0)
(1.05727 -0.0486959 0)
(1.06193 -0.0531473 0)
(1.06592 -0.0577086 0)
(1.06927 -0.0623551 0)
(1.07202 -0.0670579 0)
(1.07421 -0.071786 0)
(1.07588 -0.0765081 0)
(1.07707 -0.081196 0)
(0.989949 -0.00584769 0)
(0.992866 -0.0167355 0)
(1.00139 -0.0254421 0)
(1.01157 -0.031839 0)
(1.02124 -0.0367177 0)
(1.03013 -0.0408115 0)
(1.03843 -0.0444693 0)
(1.04609 -0.0478722 0)
(1.05297 -0.0511764 0)
(1.05903 -0.0544979 0)
(1.06431 -0.0578948 0)
(1.0689 -0.0613863 0)
(1.07284 -0.0649728 0)
(1.07617 -0.0686443 0)
(1.07896 -0.0723829 0)
(1.08123 -0.0761656 0)
(1.08305 -0.0799677 0)
(1.08442 -0.0837633 0)
(0.990193 -0.008845 0)
(0.995143 -0.0247529 0)
(1.00684 -0.0361614 0)
(1.01988 -0.0433563 0)
(1.03142 -0.0482059 0)
(1.0415 -0.051948 0)
(1.05071 -0.0550191 0)
(1.05909 -0.0576821 0)
(1.06652 -0.0601976 0)
(1.07299 -0.0627365 0)
(1.07864 -0.0653699 0)
(1.08356 -0.0681198 0)
(1.08779 -0.0709891 0)
(1.09138 -0.0739676 0)
(1.09438 -0.0770345 0)
(1.09682 -0.0801636 0)
(1.09875 -0.0833254 0)
(1.10015 -0.0864948 0)
(0.990675 -0.0129902 0)
(0.999381 -0.0350998 0)
(1.01637 -0.0486848 0)
(1.03356 -0.0557528 0)
(1.04763 -0.0600282 0)
(1.05952 -0.0631119 0)
(1.07028 -0.0653808 0)
(1.07992 -0.0671976 0)
(1.08824 -0.0689173 0)
(1.09532 -0.0707093 0)
(1.10129 -0.072614 0)
(1.10622 -0.0746352 0)
(1.11017 -0.076766 0)
(1.11317 -0.0789882 0)
(1.11527 -0.0812751 0)
(1.11654 -0.0835991 0)
(1.11702 -0.085928 0)
(1.11677 -0.0882557 0)
(0.991619 -0.0191574 0)
(1.00697 -0.0489596 0)
(1.0321 -0.0635659 0)
(1.05479 -0.0694428 0)
(1.07205 -0.072752 0)
(1.08628 -0.0749006 0)
(1.09866 -0.0760627 0)
(1.10885 -0.076741 0)
(1.11666 -0.0773352 0)
(1.12227 -0.0779634 0)
(1.12594 -0.0786403 0)
(1.12786 -0.0793792 0)
(1.12818 -0.0801883 0)
(1.12707 -0.081062 0)
(1.1247 -0.0819855 0)
(1.12125 -0.0829445 0)
(1.11681 -0.0839148 0)
(1.11162 -0.0849198 0)
(0.993464 -0.0286813 0)
(1.02036 -0.0675048 0)
(1.05728 -0.0812177 0)
(1.08617 -0.0848764 0)
(1.10564 -0.0865899 0)
(1.11969 -0.0867823 0)
(1.12936 -0.0856126 0)
(1.13442 -0.0839042 0)
(1.1353 -0.0821321 0)
(1.13288 -0.0804249 0)
(1.12789 -0.0788483 0)
(1.12085 -0.0774612 0)
(1.11222 -0.0762893 0)
(1.10234 -0.075327 0)
(1.09153 -0.0745536 0)
(1.08003 -0.073946 0)
(1.06797 -0.0734695 0)
(1.05571 -0.0731433 0)
(0.997067 -0.0435186 0)
(1.04318 -0.091409 0)
(1.0939 -0.101291 0)
(1.12381 -0.10086 0)
(1.13615 -0.0984452 0)
(1.13833 -0.0937225 0)
(1.13298 -0.0877788 0)
(1.12161 -0.0819707 0)
(1.10623 -0.0767658 0)
(1.08858 -0.0722233 0)
(1.06973 -0.0683524 0)
(1.0503 -0.0651261 0)
(1.03072 -0.0624707 0)
(1.01125 -0.0602961 0)
(0.992066 -0.0585174 0)
(0.973271 -0.0570606 0)
(0.954867 -0.0558581 0)
(0.937166 -0.054888 0)
(1.0046 -0.066971 0)
(1.07666 -0.120014 0)
(1.12984 -0.119584 0)
(1.13873 -0.109923 0)
(1.12142 -0.0986583 0)
(1.09366 -0.0862411 0)
(1.06128 -0.0749845 0)
(1.02726 -0.0659416 0)
(0.993855 -0.0588557 0)
(0.962204 -0.0532991 0)
(0.93257 -0.0489622 0)
(0.904892 -0.0455824 0)
(0.879024 -0.0429316 0)
(0.8548 -0.0408324 0)
(0.832047 -0.0391538 0)
(0.810621 -0.0377961 0)
(0.790325 -0.0366849 0)
(0.771334 -0.0357722 0)
(1.01848 -0.103279 0)
(1.10195 -0.148052 0)
(1.11676 -0.124297 0)
(1.06812 -0.0989367 0)
(1.00255 -0.0778424 0)
(0.941695 -0.0609431 0)
(0.888245 -0.0490912 0)
(0.841682 -0.0411505 0)
(0.801398 -0.0356026 0)
(0.766374 -0.0315733 0)
(0.735508 -0.0285959 0)
(0.707939 -0.0263557 0)
(0.683041 -0.0246344 0)
(0.660341 -0.0232881 0)
(0.639471 -0.02222 0)
(0.620159 -0.0213578 0)
(0.602137 -0.0206545 0)
(0.585478 -0.0200645 0)
(1.02271 -0.143786 0)
(1.05246 -0.155908 0)
(0.974881 -0.0999805 0)
(0.856397 -0.0632546 0)
(0.760949 -0.0419406 0)
(0.6936 -0.0297695 0)
(0.642634 -0.0232187 0)
(0.601695 -0.0193058 0)
(0.568015 -0.0165985 0)
(0.53966 -0.0146443 0)
(0.515209 -0.0132203 0)
(0.493715 -0.0121562 0)
(0.474541 -0.01134 0)
(0.457227 -0.0107028 0)
(0.441433 -0.0101979 0)
(0.426913 -0.00978891 0)
(0.413438 -0.00945644 0)
(0.401041 -0.00916734 0)
(0.934834 -0.143143 0)
(0.821322 -0.11343 0)
(0.65843 -0.0483721 0)
(0.525239 -0.0220523 0)
(0.452418 -0.0125442 0)
(0.409635 -0.00894009 0)
(0.37757 -0.00729529 0)
(0.351778 -0.00612869 0)
(0.33084 -0.00524191 0)
(0.313398 -0.00461789 0)
(0.29844 -0.0041739 0)
(0.285341 -0.00384117 0)
(0.273688 -0.00358466 0)
(0.263189 -0.0033842 0)
(0.253628 -0.00322514 0)
(0.244851 -0.00309464 0)
(0.236716 -0.00298983 0)
(0.229247 -0.00289011 0)
(0.556047 -0.0571369 0)
(0.344076 -0.0254766 0)
(0.230315 -0.00357612 0)
(0.17001 -0.00061114 0)
(0.148107 -0.000596215 0)
(0.135078 -0.000608411 0)
(0.124173 -0.00053494 0)
(0.115366 -0.000438013 0)
(0.108318 -0.000371186 0)
(0.102461 -0.00033102 0)
(0.0974295 -0.000302267 0)
(0.0930167 -0.000279456 0)
(0.0890881 -0.000261528 0)
(0.0855457 -0.00024739 0)
(0.082317 -0.00023612 0)
(0.0793522 -0.000225912 0)
(0.0766025 -0.000220289 0)
(0.0740843 -0.000208063 0)
(2.15283e-05 -8.74312e-05 5.58164e-21)
(-0.000601188 0.000195542 -6.89397e-21)
(-0.00201776 0.000564914 0)
(-0.00415308 0.000861761 0)
(-0.00680632 0.00106884 0)
(-0.00980664 0.00120619 6.79321e-21)
(-0.0130347 0.00129927 0)
(-0.0164148 0.00136978 0)
(-0.0199027 0.00143297 0)
(-0.0234758 0.00149783 0)
(-0.0271236 0.00156844 -6.66266e-21)
(-0.030841 0.00164557 0)
(-0.034623 0.00172791 0)
(-0.0384623 0.00181297 0)
(-0.0423467 0.00189758 0)
(-0.0462586 0.00197815 -6.5807e-21)
(-0.0501742 0.00205089 0)
(-0.0540638 0.00211185 0)
(-0.0578913 0.00215698 0)
(-0.0616149 0.00218231 0)
(-0.0651876 0.00218397 0)
(-0.0685579 0.00215843 0)
(-0.071671 0.00210266 0)
(-0.0744698 0.00201434 -6.69672e-21)
(-0.0768969 0.00189196 6.74481e-21)
(-0.0788958 0.00173503 -6.80199e-21)
(-0.0804129 0.00154393 -6.86853e-21)
(-0.0813986 0.00132047 0)
(-0.0818083 0.00106885 0)
(-0.0816084 0.000793896 7.11735e-21)
(-0.0807745 0.000500913 7.21662e-21)
(-0.0792927 0.000195904 0)
(-0.0771602 -0.000114512 0)
(-0.0743862 -0.0004234 7.56351e-21)
(-0.0709915 -0.000723857 0)
(-0.0670077 -0.00100932 0)
(-0.062477 -0.00127384 -7.96813e-21)
(-0.0574502 -0.0015123 0)
(-0.0519856 -0.00172062 -8.25619e-21)
(-0.046147 -0.00189592 -1.6804e-20)
(-0.0400016 -0.0020365 0)
(-0.0336184 -0.00214221 0)
(-0.0270652 -0.00221456 0)
(-0.0204079 -0.00225525 0)
(-0.0137111 -0.00226516 0)
(-0.00703668 -0.00224596 -1.83738e-20)
(-0.000442163 -0.00220087 -1.84034e-20)
(0.00602211 -0.00213407 -1.8359e-20)
(0.0123114 -0.00204956 0)
(0.0183862 -0.00195102 1.82416e-20)
(0.0242149 -0.00184201 0)
(0.0297722 -0.00172579 -1.80923e-20)
(0.035039 -0.00160527 -1.80078e-20)
(0.0400021 -0.00148301 0)
(0.0446537 -0.00136119 0)
(0.0489906 -0.00124162 0)
(0.0530137 -0.00112577 -1.76226e-20)
(0.0567277 -0.00101478 0)
(0.0601402 -0.000909492 0)
(0.0632609 -0.000810488 0)
(0.066102 -0.000718127 0)
(0.0686766 -0.00063258 0)
(0.070999 -0.000553859 0)
(0.0730844 -0.000481857 0)
(0.074948 -0.000416366 0)
(0.0766052 -0.00035711 1.66197e-20)
(0.0780711 -0.000303761 0)
(0.0793608 -0.000255959 0)
(0.0804887 -0.000213325 -1.62735e-20)
(0.0814685 -0.000175472 -1.61583e-20)
(0.0823134 -0.000142017 0)
(0.0830359 -0.000112584 1.59284e-20)
(0.0836478 -8.68106e-05 -1.58139e-20)
(0.0841599 -6.43525e-05 0)
(0.0845824 -4.48832e-05 1.55861e-20)
(0.0849248 -2.80957e-05 0)
(0.0851958 -1.36973e-05 0)
(0.0854033 -1.39304e-06 -1.52476e-20)
(0.0855546 9.12593e-06 0)
(0.0856571 1.80462e-05 1.50243e-20)
(0.085716 2.46728e-05 0)
(0.0857364 3.02646e-05 -1.4802e-20)
(0.0857239 3.4728e-05 -1.46916e-20)
(0.0856833 3.83201e-05 -1.45818e-20)
(0.0856182 4.10669e-05 -2.8945e-20)
(0.0855324 4.30702e-05 2.87275e-20)
(0.0854289 4.44283e-05 0)
(0.0853107 4.52298e-05 0)
(0.0851803 4.55599e-05 0)
(0.0850398 4.54986e-05 2.78664e-20)
(0.0848913 4.51183e-05 2.76532e-20)
(0.0847364 4.44801e-05 -2.74409e-20)
(0.0845765 4.36323e-05 0)
(0.084413 4.26126e-05 2.70185e-20)
(0.084247 4.14525e-05 2.68084e-20)
(0.0840794 4.0181e-05 2.65989e-20)
(0.083911 3.8826e-05 0)
(0.0837426 3.74135e-05 0)
(0.0835747 3.59669e-05 0)
(0.0834078 3.45055e-05 2.57676e-20)
(0.0832423 3.3045e-05 0)
(0.0830785 3.15974e-05 0)
(0.0829168 3.01719e-05 -2.51501e-20)
(0.0827572 2.87755e-05 0)
(0.0825998 2.74139e-05 0)
(0.082445 2.6092e-05 -2.45374e-20)
(0.0822925 2.48142e-05 0)
(0.0821426 2.35848e-05 0)
(0.0819952 2.24072e-05 2.39288e-20)
(0.0818503 2.1284e-05 2.37268e-20)
(0.0817077 2.02169e-05 0)
(0.0815676 1.92063e-05 -2.3324e-20)
(0.0814296 1.82519e-05 0)
(0.0812939 1.73527e-05 2.29228e-20)
(0.0811602 1.65072e-05 0)
(0.0810285 1.57141e-05 2.25231e-20)
(0.0808986 1.49721e-05 2.23238e-20)
(0.0807704 1.42799e-05 0)
(0.0806438 1.36361e-05 0)
(0.0805186 1.30386e-05 0)
(0.0803948 1.24843e-05 0)
(0.0802722 1.1969e-05 0)
(0.0801507 1.14879e-05 0)
(0.0800303 1.10364e-05 0)
(0.0799107 1.06114e-05 2.07423e-20)
(0.079792 1.02112e-05 -2.05463e-20)
(0.079674 9.83552e-06 0)
(0.0795567 9.4848e-06 0)
(0.07944 9.15941e-06 0)
(0.0793237 8.85914e-06 0)
(0.0792079 8.5833e-06 -3.9144e-20)
(0.0790924 8.33056e-06 0)
(0.0789771 8.09946e-06 3.837e-20)
(0.0788619 7.88842e-06 -3.79841e-20)
(0.0787468 7.69606e-06 0)
(0.0786317 7.52129e-06 0)
(0.0785165 7.36367e-06 0)
(0.078401 7.22276e-06 3.64491e-20)
(0.0782853 7.09865e-06 3.60675e-20)
(0.0781693 6.99122e-06 0)
(0.0780529 6.89985e-06 3.53069e-20)
(0.0779359 6.82307e-06 3.49279e-20)
(0.0778184 6.75881e-06 -3.455e-20)
(0.0777002 6.70466e-06 0)
(0.0775813 6.65869e-06 0)
(0.0774617 6.61976e-06 -3.34219e-20)
(0.0773412 6.58782e-06 0)
(0.0772199 6.5639e-06 0)
(0.0770976 6.54962e-06 0)
(0.0769744 6.54714e-06 0)
(0.07685 6.55889e-06 3.15628e-20)
(0.0767244 6.58755e-06 3.11943e-20)
(0.0765974 6.63607e-06 0)
(0.0764689 6.70822e-06 3.04608e-20)
(0.0763387 6.80835e-06 0)
(0.0762066 6.94209e-06 0)
(0.0760723 7.11636e-06 2.93696e-20)
(0.0759354 7.3401e-06 0)
(0.0757955 7.62445e-06 2.86486e-20)
(0.0756521 7.98362e-06 0)
(0.0755045 8.43536e-06 0)
(0.075352 9.00227e-06 2.75776e-20)
(0.0751934 9.71287e-06 0)
(0.0750276 1.06036e-05 2.68712e-20)
(0.0748527 1.17205e-05 0)
(0.0746668 1.31232e-05 0)
(0.0744671 1.48885e-05 0)
(0.0742501 1.71165e-05 -2.54805e-20)
(0.0740115 1.99394e-05 0)
(0.0737452 2.35347e-05 2.47991e-20)
(0.0734437 2.81427e-05 0)
(0.0730967 3.41096e-05 0)
(0.0726904 4.1898e-05 0)
(0.0722053 5.23884e-05 0)
(0.0716159 6.62751e-05 0)
(0.0708751 8.81769e-05 0)
(0.0699464 0.000112896 0)
(0.068577 0.000208095 -4.45358e-20)
(0.06727 0.000190118 0)
(0.0613114 0.00113389 0)
(-0.000239863 0.00146752 -1.74692e-20)
(-0.00245241 0.00470265 2.17201e-20)
(-0.00631206 0.00757143 0)
(-0.0115259 0.00975487 -1.42579e-20)
(-0.0176623 0.0112653 0)
(-0.0244084 0.012243 -7.00131e-21)
(-0.031548 0.0128475 1.38861e-20)
(-0.0389315 0.0132143 1.37653e-20)
(-0.0464585 0.013442 0)
(-0.0540628 0.0135924 1.35367e-20)
(-0.0616988 0.013698 6.71444e-21)
(-0.0693308 0.0137699 0)
(-0.076925 0.0138056 0)
(-0.0844448 0.0137939 0)
(-0.0918471 0.0137195 0)
(-0.0990813 0.0135648 6.51933e-21)
(-0.106088 0.0133123 0)
(-0.112801 0.0129447 -1.29484e-20)
(-0.119145 0.012447 0)
(-0.12504 0.011806 0)
(-0.1304 0.011012 1.29568e-20)
(-0.135139 0.0100586 0)
(-0.139169 0.00894397 -1.3066e-20)
(-0.142403 0.00767069 6.5966e-21)
(-0.14476 0.00624638 -6.6558e-21)
(-0.146168 0.0046838 6.72822e-21)
(-0.146559 0.00300078 6.812e-21)
(-0.145881 0.00121978 0)
(-0.144099 -0.000633863 0)
(-0.141185 -0.00252982 -7.10815e-21)
(-0.137131 -0.00443642 7.18932e-21)
(-0.131944 -0.00632141 0)
(-0.125647 -0.00815259 0)
(-0.118281 -0.00989892 -7.68039e-21)
(-0.1099 -0.0115317 0)
(-0.100576 -0.0130253 0)
(-0.0903882 -0.0143584 8.23667e-21)
(-0.07943 -0.015514 0)
(-0.0678013 -0.0164805 -8.6303e-21)
(-0.0556078 -0.0172514 1.77564e-20)
(-0.0429589 -0.0178261 0)
(-0.0299624 -0.0182099 0)
(-0.0167278 -0.0184075 3.80143e-20)
(-0.00336654 -0.0184253 3.81016e-20)
(0.0100157 -0.0182757 3.7808e-20)
(0.0233242 -0.0179744 -1.87388e-20)
(0.0364667 -0.0175383 1.86086e-20)
(0.0493618 -0.0169864 5.53256e-20)
(0.0619369 -0.016338 -3.65562e-20)
(0.0741289 -0.0156117 -1.81273e-20)
(0.0858845 -0.0148258 0)
(0.0971598 -0.0139972 1.78055e-20)
(0.10792 -0.0131415 -1.7629e-20)
(0.118139 -0.0122728 0)
(0.1278 -0.0114035 0)
(0.136892 -0.0105443 0)
(0.14541 -0.00970421 1.70309e-20)
(0.153359 -0.00889062 0)
(0.160745 -0.00810945 -3.34652e-20)
(0.167581 -0.00736519 0)
(0.173883 -0.00666105 -3.2908e-20)
(0.179669 -0.00599916 0)
(0.184962 -0.00538066 3.23753e-20)
(0.189784 -0.00480587 0)
(0.194161 -0.00427444 -3.18664e-20)
(0.198118 -0.00378545 1.58053e-20)
(0.20168 -0.00333753 0)
(0.204874 -0.00292901 3.11441e-20)
(0.207726 -0.00255793 1.54607e-20)
(0.210259 -0.0022222 1.53474e-20)
(0.212499 -0.00191962 0)
(0.21447 -0.00164792 1.51206e-20)
(0.216193 -0.00140486 1.50198e-20)
(0.21769 -0.00118822 0)
(0.218981 -0.000995839 -1.48106e-20)
(0.220086 -0.000825639 2.94121e-20)
(0.221021 -0.000675639 0)
(0.221804 -0.000543955 1.45081e-20)
(0.222451 -0.000428786 0)
(0.222974 -0.000328478 -4.29352e-20)
(0.223387 -0.000242157 0)
(0.223702 -0.000167958 4.236e-20)
(0.22393 -0.000103867 1.40251e-20)
(0.224082 -4.93059e-05 -1.3928e-20)
(0.224166 -3.36815e-06 -2.76688e-20)
(0.224191 3.50777e-05 2.74833e-20)
(0.224163 6.69422e-05 0)
(0.224091 9.30335e-05 0)
(0.223979 0.000114084 0)
(0.223833 0.000130758 -8.02702e-20)
(0.223658 0.000143654 -2.65781e-20)
(0.223459 0.000153304 2.63995e-20)
(0.223238 0.000160171 0)
(0.223 0.000164656 2.60428e-20)
(0.222748 0.000167106 -2.58681e-20)
(0.222483 0.000167831 -2.56923e-20)
(0.222209 0.000167106 0)
(0.221927 0.000165181 0)
(0.22164 0.000162278 0)
(0.221347 0.000158594 -2.49934e-20)
(0.221052 0.000154295 0)
(0.220754 0.000149526 4.92912e-20)
(0.220456 0.000144407 7.34172e-20)
(0.220157 0.000139039 -4.85983e-20)
(0.219858 0.00013351 0)
(0.219559 0.000127892 -2.39531e-20)
(0.219262 0.00012225 0)
(0.218967 0.000116638 -4.72159e-20)
(0.218673 0.000111104 2.34352e-20)
(0.218381 0.000105686 2.32627e-20)
(0.218091 0.000100418 0)
(0.217803 9.53209e-05 6.87533e-20)
(0.217517 9.0414e-05 -4.54904e-20)
(0.217234 8.57088e-05 -2.25727e-20)
(0.216952 8.12133e-05 0)
(0.216673 7.69322e-05 -2.22275e-20)
(0.216395 7.28687e-05 -6.61643e-20)
(0.21612 6.90235e-05 0)
(0.215846 6.53962e-05 -4.34185e-20)
(0.215573 6.19826e-05 -4.30729e-20)
(0.215302 5.87754e-05 -4.27272e-20)
(0.215033 5.57633e-05 0)
(0.214764 5.29321e-05 0)
(0.214497 5.02678e-05 0)
(0.214231 4.77584e-05 2.06718e-20)
(0.213965 4.53961e-05 2.04988e-20)
(0.2137 4.31767e-05 0)
(0.213435 4.10991e-05 4.03052e-20)
(0.213171 3.91626e-05 3.99589e-20)
(0.212907 3.73657e-05 0)
(0.212643 3.57048e-05 3.92663e-20)
(0.212378 3.41748e-05 7.78401e-20)
(0.212114 3.27693e-05 -3.85737e-20)
(0.211849 3.14817e-05 -3.82274e-20)
(0.211584 3.03052e-05 0)
(0.211318 2.92345e-05 0)
(0.211051 2.82655e-05 0)
(0.210784 2.73949e-05 -3.68422e-20)
(0.210515 2.66203e-05 3.64961e-20)
(0.210245 2.59394e-05 7.23001e-20)
(0.209974 2.53484e-05 -3.58041e-20)
(0.209702 2.48417e-05 3.54584e-20)
(0.209428 2.44123e-05 3.51127e-20)
(0.209153 2.40525e-05 0)
(0.208875 2.37564e-05 0)
(0.208596 2.35213e-05 -3.4077e-20)
(0.208315 2.33487e-05 0)
(0.208032 2.32452e-05 0)
(0.207747 2.32207e-05 6.60875e-20)
(0.207459 2.32886e-05 0)
(0.207168 2.34652e-05 3.23566e-20)
(0.206875 2.37694e-05 -3.20135e-20)
(0.206578 2.42236e-05 0)
(0.206278 2.48555e-05 3.13288e-20)
(0.205974 2.56993e-05 0)
(0.205665 2.67979e-05 0)
(0.205351 2.82055e-05 -3.03052e-20)
(0.205032 2.99909e-05 5.99304e-20)
(0.204706 3.22411e-05 -2.96258e-20)
(0.204372 3.50665e-05 0)
(0.204029 3.86062e-05 0)
(0.203676 4.30374e-05 2.86119e-20)
(0.203309 4.85851e-05 0)
(0.202926 5.55366e-05 2.79404e-20)
(0.202524 6.42593e-05 0)
(0.202098 7.52272e-05 0)
(0.201642 8.90549e-05 0)
(0.201149 0.000106546 2.66125e-20)
(0.20061 0.000128763 0)
(0.200011 0.000157129 -2.59598e-20)
(0.199337 0.000193579 0)
(0.198565 0.000240818 0)
(0.197666 0.00030268 5.00091e-20)
(0.196598 0.000385097 -4.9391e-20)
(0.195307 0.000496603 0)
(0.193696 0.000655583 0)
(0.191695 0.000882676 0)
(0.188828 0.00129427 1.41283e-19)
(0.186032 0.00197009 0)
(0.176513 0.00368733 -9.20632e-20)
(-0.000378948 0.00485037 1.10801e-23)
(-0.0036259 0.0130539 -2.87609e-20)
(-0.0090281 0.0194754 0)
(-0.0161067 0.024107 2.80984e-20)
(-0.0242544 0.0272196 0)
(-0.0330715 0.0291745 0)
(-0.0422935 0.0303122 -2.07144e-23)
(-0.0517363 0.0309071 -1.34263e-20)
(-0.0612705 0.031156 -1.32613e-20)
(-0.0708048 0.031184 -1.31531e-20)
(-0.0802714 0.0310594 0)
(-0.0896141 0.0308094 0)
(-0.0987801 0.0304338 1.27782e-20)
(-0.107715 0.0299162 2.53688e-20)
(-0.116359 0.0292311 -2.52079e-20)
(-0.124646 0.0283497 0)
(-0.132503 0.0272432 -2.49777e-20)
(-0.139849 0.0258854 1.25135e-20)
(-0.1466 0.0242543 0)
(-0.152665 0.022334 -2.49111e-20)
(-0.157953 0.0201152 -1.25558e-20)
(-0.162373 0.0175966 2.50929e-20)
(-0.165836 0.0147854 1.27041e-20)
(-0.168257 0.0116976 0)
(-0.169559 0.00835825 -2.57735e-20)
(-0.169675 0.00480102 -2.6114e-20)
(-0.16855 0.00106787 0)
(-0.166143 -0.00279634 -2.67856e-20)
(-0.162422 -0.00673742 0)
(-0.157375 -0.0106988 -2.76584e-20)
(-0.151006 -0.0146216 -1.41605e-20)
(-0.143337 -0.0184464 0)
(-0.134406 -0.0221152 0)
(-0.124268 -0.0255738 0)
(-0.112995 -0.0287727 0)
(-0.10067 -0.0316693 0)
(-0.0873915 -0.0342286 0)
(-0.0732648 -0.0364242 -3.35187e-20)
(-0.0584038 -0.0382391 5.17674e-20)
(-0.0429291 -0.0396662 0)
(-0.0269581 -0.0407092 0)
(-0.0106145 -0.0413728 0)
(0.00597008 -0.0416617 -2.90274e-23)
(0.022686 -0.0416006 -3.6181e-20)
(0.0394153 -0.0412138 -7.15944e-20)
(0.0560528 -0.0405312 7.08481e-20)
(0.072501 -0.0395856 3.50453e-20)
(0.0886715 -0.0384118 -3.46863e-20)
(0.104485 -0.0370452 9.48962e-24)
(0.119873 -0.0355208 -3.39461e-20)
(0.134775 -0.0338726 0)
(0.149142 -0.0321325 -3.32364e-20)
(0.162932 -0.0303303 8.78478e-24)
(0.176114 -0.0284932 0)
(0.188664 -0.0266455 0)
(0.200565 -0.0248085 3.18981e-20)
(0.21181 -0.0230007 0)
(0.222394 -0.0212377 0)
(0.232322 -0.0195323 -3.09664e-20)
(0.241602 -0.0178946 -6.13734e-20)
(0.250246 -0.0163326 3.04154e-20)
(0.258271 -0.0148518 0)
(0.265696 -0.0134562 -2.98745e-20)
(0.272543 -0.0121477 0)
(0.278837 -0.0109269 -2.93423e-20)
(0.284602 -0.00979337 -2.9119e-20)
(0.289867 -0.00874542 5.77416e-20)
(0.294658 -0.00778064 2.86297e-20)
(0.299003 -0.00689595 0)
(0.30293 -0.00608781 -5.63904e-20)
(0.306465 -0.0053523 0)
(0.309637 -0.00468528 -8.33267e-20)
(0.312472 -0.00408247 -5.5138e-20)
(0.314994 -0.00353955 -5.47395e-20)
(0.317228 -0.00305221 5.43495e-20)
(0.319197 -0.00261622 -8.09577e-20)
(0.320924 -0.0022275 0)
(0.322429 -0.00188211 0)
(0.323732 -0.0015763 5.28627e-20)
(0.324852 -0.00130654 7.87655e-20)
(0.325805 -0.00106922 0)
(0.326608 -0.00086151 -2.59099e-20)
(0.327276 -0.000680042 0)
(0.327822 -0.000522463 7.66897e-20)
(0.328258 -0.000386272 7.37516e-24)
(0.328596 -0.000269226 -6.84213e-24)
(0.328847 -0.000169231 -5.01067e-20)
(0.329021 -8.43187e-05 0)
(0.329126 -1.27201e-05 4.94493e-20)
(0.32917 4.71653e-05 5.0021e-24)
(0.329161 9.6778e-05 0)
(0.329104 0.00013741 0)
(0.329007 0.000170213 0)
(0.328873 0.00019621 -4.78599e-20)
(0.328708 0.000216307 0)
(0.328516 0.000231312 0)
(0.3283 0.000241945 0)
(0.328065 0.000248848 0)
(0.327812 0.000252595 0)
(0.327545 0.000253695 -4.6003e-20)
(0.327265 0.000252594 0)
(0.326975 0.000249679 -4.53949e-20)
(0.326677 0.00024529 -4.50906e-20)
(0.326371 0.000239716 4.47868e-20)
(0.32606 0.00023321 0)
(0.325744 0.000225988 4.41803e-20)
(0.325424 0.000218237 0)
(0.325102 0.000210119 4.35746e-20)
(0.324777 0.000201774 -4.32719e-20)
(0.324451 0.000193317 -1.28906e-19)
(0.324123 0.000184849 0)
(0.323795 0.000176449 -1.2709e-19)
(0.323466 0.000168183 -4.20597e-20)
(0.323138 0.000160103 0)
(0.322809 0.00015225 -8.29083e-20)
(0.32248 0.000144655 -8.23015e-20)
(0.322152 0.000137344 1.22542e-19)
(0.321823 0.000130333 0)
(0.321496 0.000123636 4.02395e-20)
(0.321168 0.000117259 3.9935e-20)
(0.320841 0.000111203 1.1889e-19)
(0.320514 0.000105463 0)
(0.320187 0.000100029 0)
(0.319861 9.48891e-05 0)
(0.319534 9.00319e-05 3.84084e-20)
(0.319207 8.54483e-05 0)
(0.318881 8.11323e-05 0)
(0.318553 7.70803e-05 -3.74897e-20)
(0.318226 7.3289e-05 -3.71828e-20)
(0.317898 6.97542e-05 0)
(0.317569 6.64699e-05 0)
(0.31724 6.34275e-05 -7.25211e-20)
(0.316909 6.06175e-05 0)
(0.316578 5.80291e-05 7.12888e-20)
(0.316245 5.56516e-05 7.06719e-20)
(0.315912 5.34757e-05 0)
(0.315576 5.14928e-05 0)
(0.31524 4.96959e-05 -6.88188e-20)
(0.314901 4.80789e-05 -8.31432e-26)
(0.314561 4.66366e-05 -8.44391e-26)
(0.314219 4.53626e-05 0)
(0.313875 4.425e-05 -1.32686e-19)
(0.313528 4.32907e-05 0)
(0.31318 4.24771e-05 0)
(0.312829 4.18044e-05 0)
(0.312475 4.12726e-05 6.38639e-20)
(0.312119 4.0888e-05 0)
(0.311759 4.06644e-05 -1.25248e-19)
(0.311397 4.06218e-05 -6.2004e-20)
(0.311031 4.07872e-05 0)
(0.310662 4.11939e-05 -6.07646e-20)
(0.310289 4.18819e-05 0)
(0.309911 4.29005e-05 0)
(0.309529 4.431e-05 -1.76721e-19)
(0.309142 4.6186e-05 1.16577e-19)
(0.308749 4.86238e-05 0)
(0.30835 5.17435e-05 1.14105e-19)
(0.307943 5.56975e-05 -5.64355e-20)
(0.307528 6.0679e-05 0)
(0.307103 6.69325e-05 0)
(0.306666 7.47676e-05 0)
(0.306216 8.45782e-05 -1.61923e-19)
(0.30575 9.68649e-05 0)
(0.305264 0.000112267 -5.27506e-20)
(0.304754 0.000131605 0)
(0.304215 0.000155934 0)
(0.303639 0.000186626 0)
(0.303017 0.000225473 0)
(0.302338 0.000274841 0)
(0.301587 0.000337895 0)
(0.300743 0.000418928 -9.70727e-20)
(0.29978 0.000523898 0)
(0.298661 0.000661241 -4.73748e-20)
(0.297338 0.000843559 1.40413e-19)
(0.295747 0.00108971 0)
(0.293773 0.00143336 0)
(0.291345 0.00192716 -9.03504e-20)
(0.287948 0.00270617 -8.93514e-20)
(0.284642 0.00404869 8.83722e-20)
(0.275181 0.00627712 8.72889e-20)
(-0.000428939 0.00911286 3.46966e-20)
(-0.00413613 0.0233881 4.27301e-20)
(-0.0102824 0.033977 2.80359e-20)
(-0.0182836 0.0413526 1.37664e-20)
(-0.0274247 0.0461703 0)
(-0.0372464 0.0490897 -2.68813e-20)
(-0.0474517 0.0506764 1.32167e-20)
(-0.057837 0.0513675 0)
(-0.0682598 0.0514704 1.30126e-20)
(-0.0786198 0.0511811 0)
(-0.0888422 0.0506083 -2.53648e-20)