/*--------------------------------*- C++ -*----------------------------------*\
  =========                 |
  \\      /  F ield         | OpenFOAM: The Open Source CFD Toolbox
   \\    /   O peration     | Website:  https://openfoam.org
    \\  /    A nd           | Version:  8
     \\/     M anipulation  |
\*---------------------------------------------------------------------------*/
FoamFile
{
    version     2.0;
    format      ascii;
    class       volScalarField;
    location    "0.06";
    object      p;
}
// * * * * * * * * * * * * * * * * * * * * * * * * * * * * * * * * * * * * * //

dimensions      [0 2 -2 0 0 0 0];

internalField   nonuniform List<scalar> 
12225
(
2.07944
1.93156
1.90791
1.89019
1.87177
1.85473
1.8384
1.82246
1.80677
1.79119
1.7756
1.75984
1.74372
1.72693
1.70901
1.68898
1.66517
1.62672
2.05756
1.93443
1.90902
1.8908
1.87207
1.85487
1.83845
1.82244
1.80669
1.79106
1.7754
1.75956
1.74333
1.72638
1.70822
1.68788
1.66351
1.62876
2.03642
1.93767
1.9102
1.89145
1.87242
1.85504
1.83852
1.82244
1.80664
1.79095
1.77524
1.75934
1.74303
1.72599
1.70773
1.68736
1.66348
1.63369
2.01983
1.94073
1.9111
1.89198
1.87279
1.85524
1.83863
1.8225
1.80666
1.79095
1.77523
1.75932
1.74302
1.72603
1.70794
1.68811
1.66577
1.64063
2.00639
1.94316
1.91189
1.89243
1.87322
1.85551
1.83883
1.82266
1.8068
1.79109
1.77539
1.75954
1.74335
1.72659
1.70894
1.69005
1.66974
1.64863
1.9952
1.94467
1.91262
1.89285
1.87373
1.85587
1.83912
1.82293
1.80707
1.79139
1.77577
1.76004
1.74407
1.72767
1.71068
1.69298
1.67474
1.65694
1.98589
1.94519
1.91325
1.89326
1.87431
1.85636
1.83954
1.82334
1.80751
1.7919
1.77639
1.76086
1.7452
1.7293
1.7131
1.69667
1.68037
1.66518
1.97823
1.94488
1.91373
1.89364
1.87493
1.85696
1.84009
1.82391
1.80813
1.79262
1.77728
1.76201
1.74674
1.73143
1.7161
1.70092
1.68632
1.67311
1.97199
1.94395
1.914
1.89398
1.87558
1.85767
1.84079
1.82465
1.80895
1.79358
1.77846
1.7635
1.74868
1.73401
1.71955
1.70553
1.69235
1.68063
1.96694
1.94262
1.91408
1.89427
1.87622
1.85845
1.84161
1.82554
1.80997
1.79477
1.7799
1.7653
1.75096
1.73694
1.72332
1.71033
1.6983
1.68767
1.96289
1.9411
1.91396
1.89449
1.87682
1.85928
1.84254
1.82659
1.81117
1.79618
1.78159
1.76738
1.75354
1.74014
1.7273
1.71519
1.70408
1.69425
1.95992
1.93969
1.91372
1.89465
1.87736
1.86007
1.84348
1.82766
1.81242
1.79766
1.78335
1.7695
1.75612
1.74327
1.73107
1.71965
1.70921
1.69994
1.95751
1.93838
1.91348
1.89474
1.87783
1.86086
1.84446
1.82881
1.81377
1.79925
1.78525
1.77176
1.75881
1.74647
1.73483
1.72399
1.71409
1.70525
1.95528
1.9371
1.91321
1.8948
1.87835
1.86178
1.84563
1.83021
1.81543
1.80121
1.78755
1.77446
1.76199
1.75017
1.73907
1.72877
1.71936
1.71088
1.95342
1.93598
1.91297
1.89491
1.87895
1.86285
1.84701
1.83188
1.81741
1.80355
1.79028
1.77764
1.76565
1.75434
1.74376
1.73395
1.72494
1.71676
1.95207
1.93519
1.91288
1.89517
1.8797
1.8641
1.84864
1.83385
1.81976
1.80629
1.79346
1.78127
1.76976
1.75893
1.74882
1.73942
1.73075
1.72279
1.95144
1.93495
1.91315
1.89574
1.88071
1.8656
1.85055
1.83614
1.82245
1.80941
1.79701
1.78527
1.77421
1.76381
1.75409
1.74503
1.73663
1.72886
1.95178
1.93553
1.91404
1.89684
1.88214
1.86745
1.85279
1.83874
1.82544
1.81281
1.80083
1.7895
1.77883
1.76881
1.75941
1.75063
1.74243
1.73479
1.95352
1.93734
1.91591
1.89876
1.88421
1.86976
1.85538
1.84164
1.82867
1.81638
1.80475
1.79377
1.78342
1.77368
1.76453
1.75594
1.7479
1.74035
1.95666
1.94022
1.91841
1.90109
1.88643
1.87193
1.85761
1.84402
1.83123
1.81914
1.80771
1.79693
1.78676
1.77719
1.76819
1.75971
1.75174
1.74424
1.96025
1.94336
1.92083
1.90311
1.88819
1.8735
1.85912
1.84557
1.83287
1.82088
1.80957
1.7989
1.78884
1.77937
1.77044
1.76202
1.7541
1.74663
1.96464
1.94689
1.92316
1.90485
1.88958
1.87462
1.86015
1.84661
1.83396
1.82205
1.81081
1.80022
1.79024
1.78082
1.77194
1.76356
1.75567
1.74821
1.97005
1.95068
1.92514
1.90618
1.89053
1.87529
1.86073
1.84722
1.83461
1.82276
1.81159
1.80106
1.79113
1.78176
1.77292
1.76457
1.75668
1.74924
1.97688
1.95444
1.92651
1.90704
1.89104
1.87552
1.86093
1.84748
1.83494
1.82314
1.81203
1.80156
1.79167
1.78234
1.77352
1.76519
1.75732
1.74988
1.98565
1.95771
1.92708
1.90744
1.89112
1.87542
1.86089
1.84753
1.83505
1.82332
1.81226
1.80183
1.79197
1.78266
1.77386
1.76554
1.75768
1.75025
1.99688
1.95982
1.9268
1.90746
1.89088
1.87511
1.86072
1.84746
1.83505
1.82337
1.81235
1.80195
1.79212
1.78282
1.77403
1.76572
1.75786
1.75044
2.0112
1.96009
1.92583
1.90722
1.89045
1.87475
1.86051
1.84734
1.83499
1.82335
1.81236
1.80198
1.79216
1.78287
1.77409
1.76578
1.75792
1.7505
2.03001
1.95839
1.92441
1.90672
1.88991
1.87439
1.86031
1.84721
1.83489
1.82328
1.81231
1.80194
1.79213
1.78285
1.77407
1.76576
1.7579
1.75047
2.05536
1.95557
1.92267
1.9059
1.8893
1.87404
1.86008
1.84704
1.83477
1.82318
1.81223
1.80186
1.79205
1.78277
1.77399
1.76568
1.75782
1.75039
2.08197
1.95289
1.92114
1.90506
1.88878
1.87373
1.85987
1.84689
1.83465
1.82308
1.81213
1.80178
1.79197
1.78269
1.77391
1.7656
1.75774
1.7503
1.58063
1.58068
1.58074
1.58078
1.58078
1.58073
1.58063
1.58046
1.58023
1.57993
1.57956
1.57911
1.57858
1.57797
1.57729
1.57651
1.57566
1.57471
1.57368
1.57257
1.57137
1.57008
1.5687
1.56723
1.56567
1.56403
1.5623
1.56048
1.55858
1.55658
1.55451
1.55235
1.5501
1.54778
1.54537
1.54289
1.54032
1.53768
1.53496
1.53216
1.5293
1.52636
1.52335
1.52026
1.51711
1.5139
1.51061
1.50726
1.50385
1.50037
1.49684
1.49324
1.48958
1.48586
1.48208
1.47825
1.47436
1.47041
1.46641
1.46235
1.45824
1.45408
1.44986
1.44559
1.44127
1.4369
1.43248
1.42801
1.42348
1.41891
1.41429
1.40962
1.40491
1.40014
1.39532
1.39046
1.38555
1.38059
1.37559
1.37054
1.36543
1.36029
1.35509
1.34985
1.34456
1.33922
1.33384
1.32841
1.32293
1.31741
1.31183
1.30621
1.30054
1.29483
1.28906
1.28325
1.27739
1.27148
1.26552
1.25951
1.25345
1.24734
1.24118
1.23497
1.22871
1.2224
1.21604
1.20963
1.20316
1.19665
1.19008
1.18346
1.17678
1.17006
1.16328
1.15644
1.14955
1.14261
1.13561
1.12856
1.12146
1.11429
1.10708
1.0998
1.09247
1.08508
1.07763
1.07013
1.06256
1.05494
1.04726
1.03952
1.03172
1.02386
1.01594
1.00796
0.999916
0.991812
0.983646
0.975417
0.967124
0.958768
0.950348
0.941863
0.933312
0.924695
0.916011
0.907261
0.898442
0.889555
0.880599
0.871574
0.862479
0.853313
0.844077
0.834769
0.825389
0.815936
0.806411
0.796812
0.78714
0.777394
0.767574
0.757679
0.747709
0.737665
0.727547
0.717355
0.707089
0.696753
0.686347
0.675874
0.665339
0.654748
0.644111
0.633441
0.622761
0.612108
0.601583
0.591067
1.58047
1.58055
1.58062
1.58065
1.58064
1.58058
1.58047
1.58029
1.58006
1.57975
1.57937
1.57892
1.57839
1.57779
1.5771
1.57633
1.57547
1.57453
1.57351
1.57239
1.57119
1.56991
1.56853
1.56707
1.56552
1.56388
1.56215
1.56033
1.55843
1.55645
1.55437
1.55222
1.54998
1.54766
1.54525
1.54277
1.54021
1.53757
1.53486
1.53207
1.5292
1.52627
1.52326
1.52018
1.51703
1.51382
1.51054
1.50719
1.50378
1.50031
1.49677
1.49318
1.48952
1.48581
1.48203
1.4782
1.47431
1.47037
1.46637
1.46231
1.4582
1.45404
1.44983
1.44556
1.44124
1.43687
1.43245
1.42798
1.42346
1.41889
1.41427
1.4096
1.40489
1.40012
1.39531
1.39044
1.38554
1.38058
1.37557
1.37052
1.36542
1.36027
1.35508
1.34984
1.34455
1.33921
1.33383
1.3284
1.32292
1.3174
1.31182
1.3062
1.30054
1.29482
1.28906
1.28324
1.27738
1.27147
1.26551
1.2595
1.25345
1.24734
1.24118
1.23497
1.22871
1.2224
1.21604
1.20962
1.20316
1.19664
1.19007
1.18345
1.17678
1.17005
1.16327
1.15644
1.14955
1.14261
1.13561
1.12856
1.12145
1.11429
1.10707
1.0998
1.09247
1.08508
1.07763
1.07012
1.06256
1.05494
1.04726
1.03952
1.03172
1.02386
1.01594
1.00796
0.999915
0.99181
0.983644
0.975415
0.967123
0.958767
0.950346
0.941861
0.93331
0.924694
0.91601
0.907259
0.898441
0.889554
0.880598
0.871573
0.862478
0.853312
0.844075
0.834767
0.825387
0.815935
0.80641
0.796811
0.787139
0.777393
0.767572
0.757678
0.747708
0.737664
0.727546
0.717354
0.707089
0.696752
0.686346
0.675874
0.665339
0.654749
0.644112
0.633444
0.622765
0.612111
0.601573
0.591019
1.58044
1.58054
1.58063
1.58067
1.58066
1.5806
1.58049
1.58032
1.58008
1.57977
1.57939
1.57894
1.57841
1.57781
1.57712
1.57635
1.57549
1.57455
1.57353
1.57242
1.57122
1.56993
1.56855
1.56709
1.56553
1.56389
1.56216
1.56035
1.55844
1.55645
1.55438
1.55222
1.54998
1.54766
1.54525
1.54277
1.54021
1.53757
1.53485
1.53206
1.52919
1.52626
1.52325
1.52017
1.51702
1.51381
1.51053
1.50718
1.50377
1.5003
1.49676
1.49317
1.48951
1.48579
1.48202
1.47819
1.4743
1.47035
1.46635
1.4623
1.45819
1.45403
1.44982
1.44555
1.44123
1.43686
1.43244
1.42797
1.42345
1.41888
1.41426
1.40959
1.40488
1.40011
1.3953
1.39044
1.38553
1.38057
1.37557
1.37052
1.36542
1.36027
1.35508
1.34983
1.34455
1.33921
1.33383
1.3284
1.32292
1.31739
1.31182
1.3062
1.30053
1.29482
1.28905
1.28324
1.27738
1.27147
1.26551
1.2595
1.25344
1.24733
1.24118
1.23497
1.22871
1.2224
1.21604
1.20962
1.20316
1.19664
1.19007
1.18345
1.17678
1.17005
1.16327
1.15644
1.14955
1.14261
1.13561
1.12856
1.12145
1.11429
1.10707
1.0998
1.09246
1.08507
1.07763
1.07012
1.06256
1.05494
1.04726
1.03952
1.03172
1.02386
1.01594
1.00796
0.999913
0.991809
0.983643
0.975414
0.967122
0.958766
0.950345
0.94186
0.93331
0.924693
0.916009
0.907259
0.89844
0.889553
0.880597
0.871572
0.862477
0.853311
0.844075
0.834767
0.825387
0.815934
0.806409
0.79681
0.787138
0.777392
0.767572
0.757677
0.747707
0.737663
0.727545
0.717352
0.707087
0.69675
0.686344
0.675871
0.665335
0.654744
0.644105
0.633432
0.622748
0.612078
0.601503
0.590865
1.58061
1.58072
1.58082
1.58088
1.58088
1.58083
1.58072
1.58055
1.58031
1.58001
1.57963
1.57918
1.57865
1.57805
1.57736
1.57659
1.57573
1.57479
1.57376
1.57265
1.57144
1.57015
1.56877
1.5673
1.56574
1.56409
1.56235
1.56053
1.55862
1.55663
1.55454
1.55238
1.55013
1.5478
1.54539
1.5429
1.54033
1.53768
1.53496
1.53216
1.52929
1.52635
1.52333
1.52025
1.5171
1.51388
1.51059
1.50724
1.50383
1.50035
1.49681
1.49321
1.48955
1.48583
1.48205
1.47822
1.47433
1.47038
1.46638
1.46232
1.45821
1.45405
1.44983
1.44557
1.44125
1.43688
1.43246
1.42798
1.42346
1.41889
1.41427
1.4096
1.40489
1.40012
1.39531
1.39044
1.38553
1.38058
1.37557
1.37052
1.36542
1.36027
1.35508
1.34984
1.34455
1.33921
1.33383
1.3284
1.32292
1.3174
1.31182
1.3062
1.30053
1.29482
1.28905
1.28324
1.27738
1.27147
1.26551
1.2595
1.25344
1.24734
1.24118
1.23497
1.22871
1.2224
1.21604
1.20962
1.20316
1.19664
1.19007
1.18345
1.17678
1.17005
1.16327
1.15644
1.14955
1.14261
1.13561
1.12856
1.12145
1.11429
1.10707
1.0998
1.09246
1.08507
1.07763
1.07012
1.06256
1.05494
1.04726
1.03952
1.03172
1.02386
1.01594
1.00796
0.999913
0.991809
0.983643
0.975414
0.967121
0.958766
0.950345
0.94186
0.93331
0.924693
0.916009
0.907259
0.89844
0.889553
0.880598
0.871572
0.862477
0.853311
0.844075
0.834767
0.825387
0.815934
0.806409
0.79681
0.787138
0.777392
0.767571
0.757676
0.747706
0.737662
0.727543
0.71735
0.707084
0.696746
0.686338
0.675863
0.665324
0.654729
0.644084
0.633402
0.6227
0.612
0.60136
0.590629
1.58096
1.58108
1.58119
1.58125
1.58126
1.58121
1.58111
1.58095
1.58072
1.58042
1.58005
1.5796
1.57907
1.57847
1.57778
1.57701
1.57615
1.5752
1.57417
1.57305
1.57184
1.57054
1.56915
1.56767
1.5661
1.56445
1.5627
1.56087
1.55894
1.55694
1.55484
1.55267
1.5504
1.54806
1.54564
1.54314
1.54055
1.5379
1.53516
1.53235
1.52947
1.52652
1.5235
1.5204
1.51724
1.51401
1.51072
1.50736
1.50394
1.50046
1.49691
1.49331
1.48964
1.48592
1.48213
1.47829
1.4744
1.47045
1.46644
1.46238
1.45827
1.4541
1.44988
1.44561
1.44129
1.43691
1.43249
1.42802
1.42349
1.41892
1.4143
1.40963
1.40491
1.40014
1.39533
1.39046
1.38555
1.38059
1.37559
1.37053
1.36543
1.36028
1.35509
1.34985
1.34456
1.33922
1.33384
1.32841
1.32293
1.3174
1.31183
1.30621
1.30054
1.29482
1.28906
1.28325
1.27738
1.27147
1.26551
1.2595
1.25345
1.24734
1.24118
1.23497
1.22871
1.2224
1.21604
1.20962
1.20316
1.19664
1.19007
1.18345
1.17678
1.17005
1.16327
1.15644
1.14955
1.14261
1.13561
1.12856
1.12145
1.11429
1.10707
1.0998
1.09246
1.08507
1.07763
1.07012
1.06256
1.05494
1.04726
1.03952
1.03172
1.02386
1.01594
1.00796
0.999913
0.991809
0.983643
0.975414
0.967122
0.958766
0.950346
0.941861
0.93331
0.924694
0.91601
0.90726
0.898441
0.889554
0.880598
0.871573
0.862478
0.853312
0.844075
0.834767
0.825387
0.815935
0.806409
0.79681
0.787138
0.777391
0.767571
0.757675
0.747705
0.73766
0.72754
0.717346
0.707079
0.696739
0.686329
0.67585
0.665307
0.654705
0.64405
0.633354
0.622629
0.611888
0.601171
0.590351
1.58149
1.58161
1.58173
1.58179
1.58181
1.58177
1.58168
1.58152
1.58129
1.581
1.58063
1.58019
1.57967
1.57906
1.57838
1.57761
1.57675
1.5758
1.57476
1.57363
1.57241
1.57111
1.5697
1.56821
1.56663
1.56496
1.5632
1.56135
1.55941
1.55739
1.55528
1.55308
1.5508
1.54845
1.54601
1.54349
1.54089
1.53821
1.53547
1.53264
1.52975
1.52678
1.52374
1.52064
1.51746
1.51422
1.51092
1.50755
1.50412
1.50062
1.49707
1.49345
1.48978
1.48605
1.48226
1.47841
1.47451
1.47055
1.46654
1.46247
1.45835
1.45418
1.44995
1.44568
1.44135
1.43697
1.43255
1.42807
1.42354
1.41897
1.41434
1.40967
1.40495
1.40018
1.39536
1.39049
1.38558
1.38062
1.37561
1.37056
1.36545
1.3603
1.35511
1.34986
1.34457
1.33924
1.33385
1.32842
1.32294
1.31741
1.31184
1.30622
1.30055
1.29483
1.28907
1.28325
1.27739
1.27148
1.26552
1.25951
1.25345
1.24734
1.24118
1.23497
1.22871
1.2224
1.21604
1.20963
1.20316
1.19664
1.19008
1.18345
1.17678
1.17005
1.16327
1.15644
1.14955
1.14261
1.13561
1.12856
1.12145
1.11429
1.10707
1.0998
1.09246
1.08507
1.07763
1.07012
1.06256
1.05494
1.04726
1.03952
1.03172
1.02386
1.01594
1.00796
0.999914
0.99181
0.983644
0.975415
0.967123
0.958767
0.950347
0.941862
0.933311
0.924695
0.916011
0.907261
0.898442
0.889555
0.8806
0.871574
0.862479
0.853313
0.844077
0.834768
0.825388
0.815935
0.80641
0.796811
0.787138
0.777391
0.76757
0.757674
0.747703
0.737657
0.727536
0.717341
0.707072
0.69673
0.686316
0.675833
0.665285
0.654674
0.644007
0.633292
0.622539
0.611754
0.600959
0.590056
1.58218
1.58231
1.58242
1.5825
1.58252
1.58249
1.5824
1.58225
1.58204
1.58175
1.58139
1.58096
1.58044
1.57984
1.57915
1.57838
1.57752
1.57657
1.57552
1.57439
1.57316
1.57184
1.57042
1.56892
1.56732
1.56563
1.56385
1.56198
1.56002
1.55798
1.55585
1.55363
1.55133
1.54895
1.54649
1.54395
1.54133
1.53864
1.53587
1.53302
1.53011
1.52712
1.52407
1.52095
1.51776
1.5145
1.51118
1.5078
1.50435
1.50085
1.49728
1.49365
1.48996
1.48622
1.48242
1.47856
1.47465
1.47069
1.46667
1.46259
1.45847
1.45429
1.45006
1.44577
1.44144
1.43706
1.43263
1.42814
1.42361
1.41903
1.4144
1.40972
1.405
1.40023
1.3954
1.39054
1.38562
1.38066
1.37565
1.37059
1.36548
1.36033
1.35513
1.34989
1.3446
1.33926
1.33387
1.32844
1.32296
1.31743
1.31185
1.30623
1.30056
1.29484
1.28908
1.28326
1.2774
1.27149
1.26553
1.25952
1.25346
1.24735
1.24119
1.23498
1.22872
1.22241
1.21604
1.20963
1.20316
1.19665
1.19008
1.18346
1.17678
1.17006
1.16327
1.15644
1.14955
1.14261
1.13561
1.12856
1.12145
1.11429
1.10707
1.0998
1.09246
1.08508
1.07763
1.07012
1.06256
1.05494
1.04726
1.03952
1.03172
1.02386
1.01594
1.00796
0.999915
0.991811
0.983645
0.975416
0.967124
0.958769
0.950349
0.941864
0.933313
0.924696
0.916013
0.907262
0.898444
0.889557
0.880601
0.871576
0.862481
0.853315
0.844078
0.83477
0.825389
0.815937
0.806411
0.796812
0.787139
0.777391
0.76757
0.757673
0.747701
0.737654
0.727532
0.717335
0.707064
0.696719
0.686301
0.675813
0.665257
0.654636
0.643956
0.63322
0.622436
0.611606
0.600738
0.589756
1.58303
1.58315
1.58327
1.58335
1.58338
1.58336
1.58328
1.58315
1.58294
1.58267
1.58232
1.58189
1.58139
1.58079
1.58011
1.57934
1.57847
1.57752
1.57646
1.57532
1.57408
1.57274
1.57131
1.56979
1.56817
1.56646
1.56465
1.56276
1.56078
1.5587
1.55655
1.55431
1.55198
1.54957
1.54709
1.54452
1.54188
1.53916
1.53636
1.5335
1.53056
1.52755
1.52448
1.52133
1.51813
1.51485
1.51151
1.50811
1.50465
1.50113
1.49754
1.4939
1.4902
1.48644
1.48263
1.47876
1.47484
1.47086
1.46683
1.46275
1.45861
1.45442
1.45018
1.44589
1.44155
1.43716
1.43272
1.42824
1.4237
1.41911
1.41448
1.4098
1.40507
1.40029
1.39546
1.39059
1.38567
1.3807
1.37569
1.37063
1.36552
1.36037
1.35517
1.34992
1.34463
1.33928
1.3339
1.32846
1.32298
1.31745
1.31187
1.30625
1.30058
1.29486
1.28909
1.28328
1.27741
1.2715
1.26554
1.25953
1.25347
1.24736
1.2412
1.23499
1.22872
1.22241
1.21605
1.20964
1.20317
1.19665
1.19008
1.18346
1.17679
1.17006
1.16328
1.15644
1.14956
1.14261
1.13562
1.12856
1.12146
1.11429
1.10707
1.0998
1.09247
1.08508
1.07763
1.07012
1.06256
1.05494
1.04726
1.03952
1.03172
1.02386
1.01594
1.00796
0.999916
0.991813
0.983647
0.975418
0.967126
0.958771
0.950351
0.941866
0.933315
0.924699
0.916015
0.907265
0.898446
0.889559
0.880603
0.871578
0.862483
0.853317
0.84408
0.834771
0.825391
0.815938
0.806412
0.796813
0.787139
0.777392
0.767569
0.757672
0.747699
0.737651
0.727528
0.717329
0.707055
0.696706
0.686284
0.67579
0.665226
0.654594
0.643898
0.63314
0.622325
0.61145
0.600516
0.589461
1.58401
1.58414
1.58427
1.58435
1.58439
1.58438
1.58432
1.5842
1.58401
1.58375
1.58342
1.583
1.5825
1.58192
1.58124
1.58047
1.57961
1.57864
1.57759
1.57643
1.57517
1.57382
1.57237
1.57082
1.56918
1.56744
1.56561
1.56368
1.56167
1.55957
1.55738
1.55511
1.55275
1.55031
1.5478
1.5452
1.54253
1.53978
1.53696
1.53406
1.5311
1.52807
1.52497
1.5218
1.51856
1.51527
1.51191
1.50849
1.505
1.50146
1.49786
1.4942
1.49048
1.48671
1.48288
1.479
1.47506
1.47107
1.46703
1.46293
1.45879
1.45459
1.45034
1.44604
1.44169
1.43729
1.43285
1.42835
1.42381
1.41921
1.41457
1.40988
1.40515
1.40036
1.39553
1.39066
1.38573
1.38076
1.37575
1.37068
1.36557
1.36041
1.35521
1.34996
1.34466
1.33932
1.33393
1.32849
1.323
1.31747
1.3119
1.30627
1.3006
1.29488
1.28911
1.28329
1.27743
1.27151
1.26555
1.25954
1.25348
1.24737
1.24121
1.23499
1.22873
1.22242
1.21606
1.20964
1.20318
1.19666
1.19009
1.18347
1.17679
1.17006
1.16328
1.15645
1.14956
1.14262
1.13562
1.12857
1.12146
1.1143
1.10708
1.0998
1.09247
1.08508
1.07763
1.07013
1.06256
1.05494
1.04726
1.03952
1.03172
1.02386
1.01594
1.00796
0.999918
0.991815
0.983649
0.97542
0.967128
0.958773
0.950353
0.941868
0.933318
0.924701
0.916018
0.907267
0.898449
0.889562
0.880606
0.87158
0.862485
0.853319
0.844082
0.834773
0.825393
0.81594
0.806413
0.796814
0.78714
0.777392
0.767569
0.757671
0.747697
0.737648
0.727522
0.717321
0.707045
0.696692
0.686266
0.675765
0.665192
0.654548
0.643835
0.633055
0.622209
0.611291
0.600296
0.589176
1.58513
1.58525
1.58538
1.58548
1.58553
1.58554
1.5855
1.58539
1.58523
1.58499
1.58468
1.58428
1.5838
1.58322
1.58256
1.58179
1.58092
1.57996
1.57889
1.57772
1.57644
1.57507
1.57359
1.57202
1.57035
1.56858
1.56671
1.56476
1.56271
1.56057
1.55835
1.55604
1.55365
1.55117
1.54862
1.54599
1.54328
1.5405
1.53764
1.53472
1.53172
1.52866
1.52553
1.52233
1.51907
1.51575
1.51237
1.50892
1.50541
1.50185
1.49823
1.49455
1.49081
1.48702
1.48318
1.47928
1.47532
1.47132
1.46726
1.46315
1.45899
1.45478
1.45052
1.44621
1.44185
1.43744
1.43299
1.42848
1.42393
1.41933
1.41468
1.40999
1.40524
1.40045
1.39562
1.39074
1.38581
1.38083
1.37581
1.37074
1.36563
1.36047
1.35526
1.35
1.3447
1.33936
1.33396
1.32852
1.32304
1.3175
1.31192
1.3063
1.30062
1.2949
1.28913
1.28331
1.27744
1.27153
1.26557
1.25955
1.25349
1.24738
1.24122
1.235
1.22874
1.22243
1.21606
1.20965
1.20318
1.19666
1.19009
1.18347
1.1768
1.17007
1.16329
1.15645
1.14956
1.14262
1.13562
1.12857
1.12146
1.1143
1.10708
1.0998
1.09247
1.08508
1.07763
1.07013
1.06256
1.05494
1.04726
1.03952
1.03172
1.02386
1.01594
1.00796
0.999921
0.991817
0.983651
0.975423
0.967131
0.958776
0.950356
0.941871
0.93332
0.924704
0.916021
0.90727
0.898451
0.889564
0.880608
0.871583
0.862488
0.853322
0.844084
0.834776
0.825395
0.815942
0.806415
0.796815
0.787141
0.777392
0.767569
0.75767
0.747695
0.737644
0.727517
0.717313
0.707034
0.696678
0.686245
0.675738
0.665156
0.654499
0.64377
0.632967
0.62209
0.611132
0.600082
0.588904
1.58635
1.58648
1.58661
1.58672
1.58679
1.58682
1.5868
1.58673
1.58659
1.58638
1.5861
1.58573
1.58527
1.58471
1.58405
1.58329
1.58243
1.58145
1.58037
1.57919
1.57789
1.5765
1.57499
1.57339
1.57168
1.56987
1.56797
1.56597
1.56389
1.56171
1.55944
1.55709
1.55466
1.55214
1.54955
1.54688
1.54413
1.54131
1.53842
1.53546
1.53243
1.52933
1.52617
1.52294
1.51965
1.5163
1.51288
1.50941
1.50588
1.50229
1.49864
1.49494
1.49119
1.48737
1.48351
1.47959
1.47562
1.4716
1.46752
1.4634
1.45923
1.455
1.45073
1.44641
1.44203
1.43762
1.43315
1.42863
1.42407
1.41946
1.41481
1.4101
1.40535
1.40056
1.39572
1.39083
1.38589
1.38091
1.37588
1.37081
1.36569
1.36053
1.35531
1.35006
1.34475
1.3394
1.33401
1.32856
1.32307
1.31754
1.31195
1.30632
1.30065
1.29492
1.28915
1.28333
1.27746
1.27155
1.26558
1.25957
1.25351
1.24739
1.24123
1.23502
1.22875
1.22244
1.21607
1.20966
1.20319
1.19667
1.1901
1.18348
1.1768
1.17007
1.16329
1.15646
1.14957
1.14262
1.13563
1.12857
1.12147
1.1143
1.10708
1.09981
1.09247
1.08508
1.07764
1.07013
1.06257
1.05494
1.04726
1.03952
1.03172
1.02387
1.01595
1.00797
0.999923
0.99182
0.983654
0.975426
0.967134
0.958779
0.950359
0.941874
0.933324
0.924707
0.916024
0.907273
0.898455
0.889568
0.880612
0.871586
0.862491
0.853324
0.844087
0.834778
0.825397
0.815944
0.806417
0.796817
0.787142
0.777393
0.767568
0.757668
0.747693
0.73764
0.727511
0.717305
0.707022
0.696662
0.686224
0.67571
0.665118
0.654449
0.643703
0.632878
0.621971
0.610975
0.599877
0.588645
1.58766
1.58778
1.58792
1.58804
1.58814
1.5882
1.58821
1.58818
1.58809
1.58792
1.58768
1.58734
1.58691
1.58637
1.58573
1.58498
1.58412
1.58314
1.58205
1.58085
1.57953
1.5781
1.57656
1.57492
1.57317
1.57132
1.56938
1.56734
1.5652
1.56298
1.56066
1.55827
1.55578
1.55322
1.55058
1.54787
1.54508
1.54222
1.53928
1.53628
1.53321
1.53008
1.52688
1.52361
1.52029
1.5169
1.51346
1.50996
1.5064
1.50278
1.49911
1.49538
1.4916
1.48777
1.48388
1.47994
1.47595
1.47191
1.46782
1.46368
1.45949
1.45525
1.45096
1.44662
1.44224
1.43781
1.43333
1.4288
1.42423
1.41961
1.41495
1.41023
1.40548
1.40067
1.39582
1.39093
1.38599
1.381
1.37597
1.37089
1.36576
1.36059
1.35538
1.35012
1.34481
1.33945
1.33405
1.32861
1.32311
1.31758
1.31199
1.30636
1.30068
1.29495
1.28918
1.28336
1.27749
1.27157
1.2656
1.25959
1.25352
1.24741
1.24124
1.23503
1.22877
1.22245
1.21608
1.20967
1.2032
1.19668
1.19011
1.18348
1.17681
1.17008
1.1633
1.15646
1.14957
1.14263
1.13563
1.12858
1.12147
1.11431
1.10709
1.09981
1.09248
1.08509
1.07764
1.07013
1.06257
1.05495
1.04727
1.03953
1.03173
1.02387
1.01595
1.00797
0.999926
0.991823
0.983657
0.975429
0.967138
0.958782
0.950363
0.941878
0.933327
0.924711
0.916027
0.907277
0.898458
0.889571
0.880615
0.87159
0.862494
0.853328
0.84409
0.834781
0.8254
0.815946
0.806419
0.796819
0.787143
0.777394
0.767568
0.757668
0.74769
0.737637
0.727506
0.717297
0.707011
0.696646
0.686203
0.675681
0.665079
0.654398
0.643635
0.632789
0.621854
0.610822
0.599681
0.588402
1.58901
1.58913
1.58928
1.58942
1.58954
1.58965
1.58972
1.58974
1.5897
1.5896
1.5894
1.58912
1.58873
1.58822
1.58761
1.58687
1.58601
1.58502
1.58392
1.58269
1.58135
1.57988
1.57831
1.57662
1.57483
1.57293
1.57093
1.56884
1.56665
1.56437
1.56201
1.55956
1.55702
1.55441
1.55172
1.54895
1.54612
1.54321
1.54023
1.53718
1.53407
1.53089
1.52765
1.52435
1.52099
1.51757
1.51409
1.51056
1.50696
1.50332
1.49962
1.49586
1.49205
1.4882
1.48429
1.48032
1.47631
1.47225
1.46814
1.46398
1.45977
1.45552
1.45121
1.44686
1.44246
1.43802
1.43353
1.42899
1.42441
1.41978
1.4151
1.41038
1.40561
1.4008
1.39594
1.39104
1.38609
1.3811
1.37606
1.37097
1.36584
1.36067
1.35545
1.35018
1.34487
1.33951
1.33411
1.32866
1.32316
1.31762
1.31203
1.30639
1.30071
1.29498
1.28921
1.28338
1.27751
1.27159
1.26562
1.25961
1.25354
1.24743
1.24126
1.23504
1.22878
1.22246
1.2161
1.20968
1.20321
1.19669
1.19012
1.18349
1.17682
1.17009
1.1633
1.15647
1.14958
1.14263
1.13564
1.12858
1.12147
1.11431
1.10709
1.09981
1.09248
1.08509
1.07764
1.07014
1.06257
1.05495
1.04727
1.03953
1.03173
1.02387
1.01595
1.00797
0.99993
0.991827
0.983661
0.975433
0.967142
0.958786
0.950366
0.941882
0.933331
0.924715
0.916031
0.907281
0.898462
0.889575
0.880619
0.871593
0.862498
0.853331
0.844094
0.834785
0.825403
0.815949
0.806422
0.796821
0.787145
0.777395
0.767569
0.757667
0.747688
0.737633
0.7275
0.717289
0.706999
0.69663
0.686181
0.675651
0.66504
0.654347
0.643568
0.632701
0.62174
0.610676
0.599495
0.588175
1.59035
1.59046
1.59062
1.59079
1.59096
1.59113
1.59127
1.59137
1.59142
1.59139
1.59128
1.59106
1.59072
1.59026
1.58967
1.58895
1.5881
1.58711
1.58598
1.58473
1.58335
1.58185
1.58023
1.57849
1.57664
1.57469
1.57263
1.57048
1.56823
1.5659
1.56347
1.56096
1.55837
1.5557
1.55295
1.55013
1.54724
1.54428
1.54125
1.53816
1.535
1.53177
1.52849
1.52515
1.52175
1.51829
1.51477
1.5112
1.50758
1.5039
1.50017
1.49638
1.49255
1.48866
1.48472
1.48074
1.4767
1.47262
1.46849
1.46431
1.46008
1.45581
1.45149
1.44712
1.44271
1.43825
1.43374
1.42919
1.42459
1.41995
1.41527
1.41054
1.40576
1.40094
1.39607
1.39116
1.3862
1.3812
1.37616
1.37106
1.36593
1.36075
1.35552
1.35025
1.34493
1.33957
1.33416
1.32871
1.32321
1.31766
1.31207
1.30644
1.30075
1.29502
1.28924
1.28341
1.27754
1.27162
1.26565
1.25963
1.25356
1.24744
1.24128
1.23506
1.22879
1.22248
1.21611
1.20969
1.20322
1.1967
1.19013
1.1835
1.17682
1.17009
1.16331
1.15647
1.14958
1.14264
1.13564
1.12859
1.12148
1.11431
1.10709
1.09982
1.09248
1.08509
1.07764
1.07014
1.06258
1.05495
1.04727
1.03953
1.03173
1.02387
1.01596
1.00797
0.999934
0.99183
0.983665
0.975437
0.967146
0.95879
0.950371
0.941886
0.933336
0.924719
0.916036
0.907285
0.898466
0.889579
0.880623
0.871597
0.862502
0.853335
0.844098
0.834788
0.825407
0.815952
0.806425
0.796823
0.787147
0.777396
0.767569
0.757666
0.747687
0.73763
0.727494
0.717281
0.706987
0.696614
0.686159
0.675622
0.665002
0.654296
0.643502
0.632616
0.62163
0.610537
0.599321
0.587963
1.59159
1.59169
1.59186
1.59208
1.59233
1.59258
1.59283
1.59305
1.59322
1.5933
1.59328
1.59315
1.59289
1.59249
1.59194
1.59124
1.59039
1.58939
1.58825
1.58696
1.58554
1.58399
1.58231
1.58052
1.57861
1.57659
1.57447
1.57225
1.56994
1.56754
1.56504
1.56247
1.55981
1.55708
1.55427
1.55139
1.54845
1.54543
1.54235
1.5392
1.53599
1.53272
1.52939
1.526
1.52256
1.51906
1.5155
1.51189
1.50823
1.50452
1.50075
1.49694
1.49307
1.48916
1.48519
1.48118
1.47712
1.47302
1.46886
1.46466
1.46041
1.45612
1.45178
1.4474
1.44297
1.43849
1.43397
1.42941
1.4248
1.42014
1.41545
1.4107
1.40592
1.40108
1.39621
1.39129
1.38632
1.38132
1.37626
1.37116
1.36602
1.36084
1.3556
1.35033
1.345
1.33964
1.33423
1.32877
1.32326
1.31771
1.31212
1.30648
1.30079
1.29506
1.28928
1.28345
1.27757
1.27165
1.26567
1.25965
1.25358
1.24747
1.2413
1.23508
1.22881
1.22249
1.21612
1.2097
1.20323
1.19671
1.19014
1.18351
1.17683
1.1701
1.16332
1.15648
1.14959
1.14265
1.13565
1.12859
1.12148
1.11432
1.1071
1.09982
1.09249
1.0851
1.07765
1.07014
1.06258
1.05496
1.04728
1.03954
1.03174
1.02388
1.01596
1.00798
0.999938
0.991835
0.98367
0.975442
0.96715
0.958795
0.950376
0.941891
0.93334
0.924724
0.91604
0.90729
0.898471
0.889584
0.880628
0.871602
0.862506
0.85334
0.844102
0.834792
0.825411
0.815956
0.806428
0.796826
0.78715
0.777398
0.76757
0.757666
0.747685
0.737627
0.727489
0.717273
0.706976
0.696598
0.686138
0.675594
0.664965
0.654248
0.643439
0.632534
0.621526
0.610406
0.599159
0.587768
1.59263
1.59272
1.59293
1.59322
1.59358
1.59398
1.5944
1.59479
1.59512
1.59537
1.5955
1.59549
1.59533
1.595
1.59449
1.59382
1.59298
1.59196
1.59079
1.58947
1.588
1.58639
1.58464
1.58278
1.5808
1.57871
1.57651
1.57421
1.57182
1.56934
1.56678
1.56413
1.5614
1.5586
1.55572
1.55278
1.54976
1.54668
1.54354
1.54034
1.53707
1.53375
1.53037
1.52693
1.52344
1.5199
1.5163
1.51265
1.50895
1.5052
1.50139
1.49754
1.49365
1.4897
1.48571
1.48167
1.47758
1.47345
1.46927
1.46504
1.46077
1.45646
1.4521
1.4477
1.44325
1.43876
1.43422
1.42964
1.42502
1.42035
1.41564
1.41089
1.40609
1.40125
1.39636
1.39143
1.38646
1.38144
1.37638
1.37127
1.36612
1.36093
1.35569
1.35041
1.34508
1.33971
1.33429
1.32883
1.32332
1.31777
1.31217
1.30653
1.30084
1.2951
1.28931
1.28348
1.2776
1.27168
1.2657
1.25968
1.25361
1.24749
1.24132
1.2351
1.22883
1.22251
1.21614
1.20972
1.20325
1.19672
1.19015
1.18352
1.17684
1.17011
1.16333
1.15649
1.1496
1.14265
1.13565
1.1286
1.12149
1.11432
1.1071
1.09983
1.09249
1.0851
1.07765
1.07015
1.06258
1.05496
1.04728
1.03954
1.03174
1.02388
1.01596
1.00798
0.999943
0.99184
0.983675
0.975447
0.967156
0.958801
0.950381
0.941897
0.933346
0.92473
0.916046
0.907295
0.898477
0.88959
0.880633
0.871608
0.862512
0.853345
0.844107
0.834797
0.825416
0.815961
0.806432
0.79683
0.787153
0.777401
0.767572
0.757667
0.747685
0.737625
0.727486
0.717267
0.706967
0.696585
0.686119
0.675568
0.66493
0.654202
0.643379
0.632458
0.621429
0.610284
0.59901
0.587589
1.59316
1.59326
1.59352
1.59394
1.59448
1.5951
1.59576
1.5964
1.59698
1.59746
1.59779
1.59795
1.59792
1.59768
1.59724
1.5966
1.59576
1.59473
1.59352
1.59215
1.59061
1.58893
1.58712
1.58517
1.58311
1.58093
1.57865
1.57627
1.57379
1.57123
1.56858
1.56586
1.56305
1.56017
1.55723
1.55421
1.55113
1.54799
1.54478
1.54152
1.53819
1.53482
1.53138
1.52789
1.52435
1.52076
1.51712
1.51343
1.50968
1.50589
1.50206
1.49817
1.49424
1.49026
1.48624
1.48217
1.47805
1.47389
1.46969
1.46544
1.46115
1.45681
1.45243
1.44801
1.44355
1.43904
1.43448
1.42989
1.42525
1.42057
1.41584
1.41108
1.40627
1.40141
1.39652
1.39158
1.38659
1.38157
1.3765
1.37139
1.36623
1.36103
1.35578
1.3505
1.34516
1.33979
1.33436
1.3289
1.32338
1.31783
1.31222
1.30658
1.30088
1.29514
1.28935
1.28352
1.27764
1.27171
1.26573
1.25971
1.25363
1.24751
1.24134
1.23512
1.22885
1.22253
1.21616
1.20973
1.20326
1.19674
1.19016
1.18354
1.17686
1.17012
1.16334
1.1565
1.14961
1.14266
1.13566
1.12861
1.1215
1.11433
1.10711
1.09983
1.0925
1.08511
1.07766
1.07015
1.06259
1.05497
1.04729
1.03955
1.03175
1.02389
1.01597
1.00799
0.999948
0.991845
0.98368
0.975452
0.967161
0.958806
0.950387
0.941902
0.933352
0.924735
0.916052
0.907301
0.898482
0.889595
0.880639
0.871613
0.862517
0.85335
0.844112
0.834802
0.82542
0.815965
0.806436
0.796833
0.787156
0.777403
0.767574
0.757668
0.747685
0.737623
0.727481
0.71726
0.706957
0.696571
0.6861
0.675543
0.664897
0.654158
0.643323
0.632385
0.621338
0.610171
0.598871
0.587424
1.59292
1.59306
1.59343
1.59404
1.59484
1.59577
1.59676
1.59774
1.59864
1.5994
1.59998
1.60033
1.60045