/*--------------------------------*- C++ -*----------------------------------*\
  =========                 |
  \\      /  F ield         | OpenFOAM: The Open Source CFD Toolbox
   \\    /   O peration     | Website:  https://openfoam.org
    \\  /    A nd           | Version:  8
     \\/     M anipulation  |
\*---------------------------------------------------------------------------*/
FoamFile
{
    version     2.0;
    format      ascii;
    class       surfaceScalarField;
    location    "0.06";
    object      phi;
}
// * * * * * * * * * * * * * * * * * * * * * * * * * * * * * * * * * * * * * //

dimensions      [0 3 -1 0 0 0 0];

internalField   nonuniform List<scalar> 
24170
(
3.60326e-08
7.41241e-08
1.92967e-08
1.67359e-08
1.52521e-08
4.04465e-09
1.37841e-08
1.46802e-09
1.31222e-08
6.61889e-10
1.28486e-08
2.73527e-10
1.28104e-08
3.82041e-11
1.29291e-08
-1.18672e-10
1.31712e-08
-2.42099e-10
1.35298e-08
-3.58641e-10
1.40179e-08
-4.8805e-10
1.46694e-08
-6.51473e-10
1.55496e-08
-8.80256e-10
1.67843e-08
-1.23469e-09
1.86502e-08
-1.86583e-09
2.1863e-08
-3.21283e-09
2.87182e-08
-6.85526e-09
-2.77458e-08
5.6464e-08
8.19058e-08
1.10281e-07
5.62196e-08
4.2422e-08
4.55524e-08
1.47118e-08
4.09067e-08
6.11373e-09
3.88397e-08
2.72896e-09
3.79487e-08
1.16453e-09
3.77499e-08
2.36987e-10
3.80173e-08
-3.86133e-10
3.86449e-08
-8.69638e-10
3.96032e-08
-1.31699e-09
4.09192e-08
-1.80401e-09
4.26754e-08
-2.40767e-09
4.50311e-08
-3.23598e-09
4.82795e-08
-4.4831e-09
5.29841e-08
-6.57046e-09
6.03484e-08
-1.05771e-08
7.31635e-08
-1.96703e-08
-4.79005e-08
9.33182e-08
1.14664e-07
1.22155e-07
9.10554e-08
6.60303e-08
7.64927e-08
2.92746e-08
6.89351e-08
1.36713e-08
6.53588e-08
6.30524e-09
6.37559e-08
2.76749e-09
6.32988e-08
6.94029e-10
6.36152e-08
-7.02547e-10
6.45218e-08
-1.77621e-09
6.59561e-08
-2.75132e-09
6.79435e-08
-3.79137e-09
7.059e-08
-5.05421e-09
7.41024e-08
-6.74834e-09
7.88413e-08
-9.22198e-09
8.54248e-08
-1.3154e-08
9.49014e-08
-2.00538e-08
1.08637e-07
-3.3406e-08
-6.26456e-08
1.23382e-07
1.39272e-07
1.18501e-07
1.22001e-07
8.33012e-08
1.06879e-07
4.43967e-08
9.74004e-08
2.31502e-08
9.24049e-08
1.13007e-08
9.00355e-08
5.1369e-09
8.92341e-08
1.49545e-09
8.94976e-08
-9.66065e-10
9.05692e-08
-2.84777e-09
9.23451e-08
-4.52729e-09
9.48331e-08
-6.27933e-09
9.81351e-08
-8.3562e-09
1.02455e-07
-1.10681e-08
1.08123e-07
-1.48905e-08
1.15623e-07
-2.0654e-08
1.2551e-07
-2.99403e-08
1.37794e-07
-4.56901e-08
-7.31113e-08
1.4826e-07
1.57879e-07
1.05975e-07
1.48465e-07
9.27149e-08
1.35497e-07
5.73649e-08
1.25537e-07
3.31102e-08
1.19542e-07
1.72959e-08
1.16466e-07
8.2128e-09
1.15277e-07
2.68372e-09
1.15402e-07
-1.0905e-09
1.16526e-07
-3.97172e-09
1.18503e-07
-6.50444e-09
1.21309e-07
-9.0859e-09
1.25017e-07
-1.20642e-08
1.29783e-07
-1.58341e-08
1.35837e-07
-2.09436e-08
1.43425e-07
-2.82422e-08
1.52591e-07
-3.91068e-08
1.62504e-07
-5.56029e-08
-8.00023e-08
1.69395e-07
1.72246e-07
8.95142e-08
1.70331e-07
9.46295e-08
1.61302e-07
6.63941e-08
1.52399e-07
4.20139e-08
1.46141e-07
2.35532e-08
1.42603e-07
1.17516e-08
1.41073e-07
4.21357e-09
1.41013e-07
-1.03105e-09
1.42093e-07
-5.05189e-09
1.44134e-07
-8.54517e-09
1.47073e-07
-1.20252e-08
1.50934e-07
-1.59252e-08
1.55796e-07
-2.06956e-08
1.61749e-07
-2.68971e-08
1.68797e-07
-3.52896e-08
1.76598e-07
-4.69081e-08
1.83957e-07
-6.29616e-08
-8.39731e-08
1.87928e-07
1.84015e-07
7.24661e-08
1.88128e-07
9.05156e-08
1.83768e-07
7.07549e-08
1.7717e-07
4.86113e-08
1.71539e-07
2.91845e-08
1.67962e-07
1.53281e-08
1.66252e-07
5.92342e-09
1.66032e-07
-8.11012e-10
1.67011e-07
-6.03048e-09
1.69e-07
-1.0534e-08
1.71902e-07
-1.49274e-08
1.75684e-07
-1.97068e-08
1.80335e-07
-2.53464e-08
1.85806e-07
-3.23685e-08
1.91898e-07
-4.13817e-08
1.98048e-07
-5.30585e-08
2.03023e-07
-6.79362e-08
-8.56341e-08
2.04684e-07
1.94604e-07
5.68121e-08
2.02833e-07
8.22864e-08
2.0295e-07
7.06382e-08
1.99375e-07
5.21862e-08
1.95179e-07
3.33806e-08
1.92089e-07
1.84177e-08
1.90468e-07
7.5445e-09
1.90191e-07
-5.33827e-10
1.91066e-07
-6.90488e-09
1.92926e-07
-1.23949e-08
1.95656e-07
-1.76569e-08
1.99168e-07
-2.32186e-08
2.03368e-07
-2.95466e-08
2.08092e-07
-3.70922e-08
2.13004e-07
-4.62941e-08
2.17459e-07
-5.75139e-08
2.20364e-07
-7.0841e-08
-8.55148e-08
2.20245e-07
2.05123e-07
4.34834e-08
2.15614e-07
7.1795e-08
2.19403e-07
6.68493e-08
2.18984e-07
5.26051e-08
2.16765e-07
3.55996e-08
2.14658e-07
2.05245e-08
2.13449e-07
8.75399e-09
2.13284e-07
-3.69266e-10
2.1411e-07
-7.73074e-09
2.15816e-07
-1.41008e-08
2.18284e-07
-2.01251e-08
2.21391e-07
-2.63254e-08
2.24978e-07
-3.31338e-08
2.28802e-07
-4.09156e-08
2.32461e-07
-4.99535e-08
2.35326e-07
-6.03785e-08
2.36512e-07
-7.20277e-08
-8.40536e-08
2.35051e-07
2.16343e-07
3.27004e-08
2.27593e-07
6.05446e-08
2.33975e-07
6.04674e-08
2.36378e-07
5.02025e-08
2.3633e-07
3.56473e-08
2.35558e-07
2.12967e-08
2.3506e-07
9.25158e-09
2.35206e-07
-5.14672e-10
2.36082e-07
-8.60697e-09
2.37653e-07
-1.56719e-08
2.39822e-07
-2.22937e-08
2.42448e-07
-2.89518e-08
2.45338e-07
-3.60234e-08
2.48208e-07
-4.3786e-08
2.50651e-07
-5.23964e-08
2.5211e-07
-6.18379e-08
2.51919e-07
-7.18368e-08
-8.16056e-08
2.49471e-07
2.28682e-07
2.43319e-08
2.39642e-07
4.95844e-08
2.47591e-07
5.2519e-08
2.52206e-07
4.55867e-08
2.54206e-07
3.3648e-08
2.54919e-07
2.05832e-08
2.55345e-07
8.82619e-09
2.55976e-07
-1.14565e-09
2.57015e-07
-9.64672e-09
2.58504e-07
-1.71604e-08
2.60379e-07
-2.41685e-08
2.62505e-07
-3.10786e-08
2.64682e-07
-3.81999e-08
2.66625e-07
-4.57294e-08
2.67962e-07
-5.37331e-08
2.68238e-07
-6.21144e-08
2.66982e-07
-7.05804e-08
-7.84682e-08
2.63845e-07
2.03708e-07
1.8965e-08
2.12306e-07
4.09866e-08
2.19764e-07
4.50606e-08
2.24814e-07
4.05366e-08
2.27797e-07
3.06648e-08
2.29511e-07
1.88691e-08
2.30647e-07
7.69025e-09
2.31642e-07
-2.13997e-09
2.32722e-07
-1.0727e-08
2.33967e-07
-1.84052e-08
2.35352e-07
-2.5554e-08
2.36781e-07
-3.25079e-08
2.38096e-07
-3.95143e-08
2.39078e-07
-4.67116e-08
2.39459e-07
-5.41141e-08
2.38941e-07
-6.15963e-08
2.37249e-07
-6.88885e-08
-7.54322e-08
2.34213e-07
2.4669e-07
1.40557e-08
2.55553e-07
3.21229e-08
2.64076e-07
3.65378e-08
2.70773e-07
3.38393e-08
2.75415e-07
2.60236e-08
2.78509e-07
1.57746e-08
2.80681e-07
5.51877e-09
2.82384e-07
-3.84367e-09
2.83898e-07
-1.22404e-08
2.85348e-07
-1.98556e-08
2.86741e-07
-2.69469e-08
2.87992e-07
-3.37586e-08
2.88946e-07
-4.04686e-08
2.89394e-07
-4.71597e-08
2.8909e-07
-5.38098e-08
2.87784e-07
-6.02899e-08
2.85271e-07
-6.6376e-08
-7.1613e-08
2.81452e-07
2.99161e-07
9.62836e-09
3.08024e-07
2.32594e-08
3.17337e-07
2.72249e-08
3.25544e-07
2.56326e-08
3.31928e-07
1.964e-08
3.36608e-07
1.10938e-08
3.40051e-07
2.07655e-09
3.42666e-07
-6.45886e-09
3.44743e-07
-1.43175e-08
3.46444e-07
-2.15564e-08
3.47807e-07
-2.83103e-08
3.48775e-07
-3.4727e-08
3.4922e-07
-4.09134e-08
3.48965e-07
-4.69049e-08
3.47815e-07
-5.26596e-08
3.4559e-07
-5.80652e-08
3.4217e-07
-6.29554e-08
-6.69766e-08
3.37533e-07
3.63162e-07
5.75028e-09
3.71778e-07
1.46433e-08
3.81628e-07
1.73748e-08
3.91084e-07
1.61769e-08
3.9911e-07
1.16144e-08
4.05422e-07
4.78196e-09
4.10243e-07
-2.74539e-09
4.13884e-07
-1.00997e-08
4.16602e-07
-1.70348e-08
4.18566e-07
-2.35209e-08
4.19848e-07
-2.95924e-08
4.20432e-07
-3.53105e-08
4.20237e-07
-4.07188e-08
4.19149e-07
-4.5817e-08
4.17047e-07
-5.05571e-08
4.13835e-07
-5.48533e-08
4.09475e-07
-5.85953e-08
-6.15211e-08
4.0402e-07
4.41325e-07
2.39735e-09
4.49537e-07
6.43162e-09
4.59679e-07
7.23243e-09
4.70078e-07
5.77781e-09
4.79499e-07
2.19361e-09
4.87304e-07
-3.02309e-09
4.93437e-07
-8.87766e-09
4.98064e-07
-1.47272e-08
5.01381e-07
-2.03522e-08
5.03546e-07
-2.56855e-08
5.04656e-07
-3.07024e-08
5.04747e-07
-3.54016e-08
5.03808e-07
-3.97794e-08
5.01802e-07
-4.38118e-08
4.98698e-07
-4.74525e-08
4.94486e-07
-5.06419e-08
4.89204e-07
-5.33133e-08
-5.52797e-08
4.82963e-07
5.36847e-07
-5.55627e-10
5.44707e-07
-1.4284e-09
5.55033e-07
-3.09345e-09
5.66135e-07
-5.32378e-09
5.76641e-07
-8.31313e-09
5.85648e-07
-1.20292e-08
5.92836e-07
-1.60658e-08
5.98223e-07
-2.01142e-08
6.01932e-07
-2.40616e-08
6.04106e-07
-2.78598e-08
6.04873e-07
-3.14688e-08
6.04326e-07
-3.48552e-08
6.02533e-07
-3.79864e-08
5.99545e-07
-4.08236e-08
5.95416e-07
-4.33231e-08
5.90216e-07
-4.54423e-08
5.84044e-07
-4.7141e-08
-4.82875e-08
5.77052e-07
6.53657e-07
-3.38862e-09
6.61588e-07
-9.35885e-09
6.7238e-07
-1.38853e-08
6.84234e-07
-1.71784e-08
6.95645e-07
-1.97238e-08
7.05517e-07
-2.19013e-08
7.13349e-07
-2.38974e-08
7.19053e-07
-2.58183e-08
7.22721e-07
-2.77302e-08
7.24511e-07
-2.96498e-08
7.24597e-07
-3.15546e-08
7.23143e-07
-3.34016e-08
7.20297e-07
-3.51401e-08
7.16192e-07
-3.67182e-08
7.10956e-07
-3.80877e-08
7.04723e-07
-3.92092e-08
6.97633e-07
-4.00507e-08
-4.05171e-08
6.89863e-07
7.9675e-07
-6.77452e-09
8.06058e-07
-1.86673e-08
8.18506e-07
-2.63334e-08
8.31933e-07
-3.06054e-08
8.44517e-07
-3.23073e-08
8.55002e-07
-3.23869e-08
8.62872e-07
-3.17669e-08
8.68103e-07
-3.10492e-08
8.70883e-07
-3.05109e-08
8.71475e-07
-3.02419e-08
8.70156e-07
-3.02349e-08
8.67185e-07
-3.04303e-08
8.62792e-07
-3.0748e-08
8.57183e-07
-3.11089e-08
8.5054e-07
-3.1445e-08
8.43034e-07
-3.17034e-08
8.34827e-07
-3.18433e-08
-3.17926e-08
8.26102e-07
5.84035e-07
-1.00144e-08
5.92564e-07
-2.71959e-08
6.03094e-07
-3.68636e-08
6.1336e-07
-4.08716e-08
6.22096e-07
-4.10432e-08
6.2864e-07
-3.89302e-08
6.32865e-07
-3.59922e-08
6.34986e-07
-3.31698e-08
6.35322e-07
-3.08476e-08
6.3419e-07
-2.91096e-08
6.31863e-07
-2.79081e-08
6.28568e-07
-2.7135e-08
6.24486e-07
-2.66662e-08
6.19766e-07
-2.63884e-08
6.1453e-07
-2.62089e-08
6.08884e-07
-2.60579e-08
6.02924e-07
-2.58832e-08
-2.56219e-08
5.96753e-07
5.10052e-07
-1.44544e-08
5.20439e-07
-3.75827e-08
5.31733e-07
-4.81576e-08
5.41419e-07
-5.05576e-08
5.48522e-07
-4.81466e-08
5.52828e-07
-4.32361e-08
5.54675e-07
-3.78397e-08
5.54605e-07
-3.30989e-08
5.53105e-07
-2.93485e-08
5.50558e-07
-2.65622e-08
5.4724e-07
-2.45901e-08
5.43348e-07
-2.32426e-08
5.39019e-07
-2.23377e-08
5.34355e-07
-2.17246e-08
5.29434e-07
-2.12878e-08
5.2432e-07
-2.09433e-08
5.19067e-07
-2.06307e-08
-2.02941e-08
5.13739e-07
4.46921e-07
-2.12147e-08
4.60101e-07
-5.07626e-08
4.72064e-07
-6.01204e-08
4.80544e-07
-5.90381e-08
4.85233e-07
-5.28351e-08
4.86638e-07
-4.46412e-08
4.85719e-07
-3.69213e-08
4.83339e-07
-3.07183e-08
4.80076e-07
-2.6086e-08
4.76291e-07
-2.2777e-08
4.72195e-07
-2.04936e-08
4.67904e-07
-1.89523e-08
4.63485e-07
-1.79183e-08
4.58975e-07
-1.72145e-08
4.54401e-07
-1.67135e-08
4.49784e-07
-1.63268e-08
4.45147e-07
-1.59933e-08
-1.5667e-08
4.4052e-07
3.93709e-07
-3.17417e-08
4.09689e-07
-6.6742e-08
4.20877e-07
-7.13093e-08
4.26414e-07
-6.45749e-08
4.27262e-07
-5.36831e-08
4.24972e-07
-4.23509e-08
4.2109e-07
-3.30389e-08
4.16582e-07
-2.62105e-08
4.11922e-07
-2.14262e-08
4.07317e-07
-1.81716e-08
4.02832e-07
-1.60095e-08
3.9847e-07
-1.45901e-08
3.94208e-07
-1.36559e-08
3.90021e-07
-1.30281e-08
3.85893e-07
-1.25849e-08
3.81812e-07
-1.22458e-08
3.77775e-07
-1.19566e-08
-1.16851e-08
3.73793e-07
3.49278e-07
-4.74402e-08
3.66235e-07
-8.36995e-08
3.73666e-07
-7.87398e-08
3.73883e-07
-6.4792e-08
3.69648e-07
-4.94476e-08
3.63513e-07
-3.6216e-08
3.57161e-07
-2.66876e-08
3.5125e-07
-2.0299e-08
3.45918e-07
-1.60943e-08
3.41118e-07
-1.33721e-08
3.36743e-07
-1.16337e-08
3.32678e-07
-1.0526e-08
3.28835e-07
-9.81261e-09
3.25147e-07
-9.33974e-09
3.21569e-07
-9.00753e-09
3.18076e-07
-8.75217e-09
3.14651e-07
-8.53179e-09
-8.32874e-09
3.11295e-07
3.11471e-07
-6.85131e-08
3.25141e-07
-9.73699e-08
3.25078e-07
-7.86764e-08
3.18258e-07
-5.79719e-08
3.09016e-07
-4.0206e-08
3.00122e-07
-2.73218e-08
2.92592e-07
-1.91574e-08
2.86397e-07
-1.41047e-08
2.81257e-07
-1.09544e-08
2.76887e-07
-9.00204e-09
2.73051e-07
-7.79749e-09
2.69575e-07
-7.0496e-09
2.66339e-07
-6.57685e-09
2.63266e-07
-6.26646e-09
2.60306e-07
-6.04764e-09
2.5743e-07
-5.87636e-09
2.54622e-07
-5.72379e-09
-5.58471e-09
2.51878e-07
2.76555e-07
-9.2262e-08
2.80842e-07
-1.01657e-07
2.70757e-07
-6.85915e-08
2.57389e-07
-4.4604e-08
2.45128e-07
-2.7945e-08
2.35571e-07
-1.77645e-08
2.28434e-07
-1.20209e-08
2.23001e-07
-8.67179e-09
2.18712e-07
-6.66523e-09
2.15174e-07
-5.46349e-09
2.12118e-07
-4.74152e-09
2.0937e-07
-4.30215e-09
2.06822e-07
-4.02824e-09
2.04404e-07
-3.84908e-09
2.02078e-07
-3.72116e-09
1.99819e-07
-3.61784e-09
1.97617e-07
-3.52117e-09
-3.43379e-09
1.95466e-07
2.39426e-07
-1.11608e-07
2.2877e-07
-9.10002e-08
2.0958e-07
-4.94018e-08
1.92921e-07
-2.79447e-08
1.80836e-07
-1.58604e-08
1.72697e-07
-9.6252e-09
1.67075e-07
-6.39874e-09
1.62975e-07
-4.5717e-09
1.59815e-07
-3.50525e-09
1.57234e-07
-2.88249e-09
1.55008e-07
-2.51545e-09
1.53001e-07
-2.29535e-09
1.51132e-07
-2.15941e-09
1.49353e-07
-2.07033e-09
1.47638e-07
-2.00538e-09
1.4597e-07
-1.95064e-09
1.44345e-07
-1.89597e-09
-1.8462e-09
1.42758e-07
1.94609e-07
-1.14626e-07
1.67623e-07
-6.40151e-08
1.44577e-07
-2.63552e-08
1.29406e-07
-1.27739e-08
1.20245e-07
-6.69914e-09
1.14622e-07
-4.00265e-09
1.10874e-07
-2.65012e-09
1.08189e-07
-1.88671e-09
1.06133e-07
-1.45015e-09
1.04451e-07
-1.20002e-09
1.0299e-07
-1.05455e-09
1.01663e-07
-9.68259e-10
1.00419e-07
-9.15265e-10
9.92289e-08
-8.80317e-10
9.80776e-08
-8.54123e-10
9.69579e-08
-8.30894e-10
9.58676e-08
-8.05737e-10
-7.80059e-10
9.48015e-08
1.37204e-07
-8.50396e-08
1.00155e-07
-2.6966e-08
8.13866e-08
-7.58713e-09
7.16656e-08
-3.05295e-09
6.65082e-08
-1.54174e-09
6.34434e-08
-9.37861e-10
6.14142e-08
-6.20841e-10
5.9969e-08
-4.41605e-10
5.88605e-08
-3.41619e-10
5.79457e-08
-2.85207e-10
5.71439e-08
-2.52732e-10
5.64093e-08
-2.33652e-10
5.5716e-08
-2.21985e-10
5.50499e-08
-2.14225e-10
5.4404e-08
-2.08219e-10
5.37757e-08
-2.02581e-10
5.31658e-08
-1.95824e-10
-1.86123e-10
5.25718e-08
6.01593e-08
3.31933e-08
2.56061e-08
2.25532e-08
2.10114e-08
2.00736e-08
1.94527e-08
1.90111e-08
1.86695e-08
1.83843e-08
1.81316e-08
1.78979e-08
1.76759e-08
1.74617e-08
1.72535e-08
1.70509e-08
1.68551e-08
1.6669e-08
6.42494e-11
-6.42493e-11
3.69299e-10
-3.0505e-10
9.36552e-10
-5.67253e-10
1.73443e-09
-7.97876e-10
2.72053e-09
-9.86099e-10
3.85429e-09
-1.13376e-09
5.10041e-09
-1.24612e-09
6.42979e-09
-1.32938e-09
7.8193e-09
-1.38951e-09
9.25099e-09
-1.4317e-09
1.07111e-08
-1.46015e-09
1.21893e-08
-1.47814e-09
1.36774e-08
-1.48811e-09
1.51692e-08
-1.49183e-09
1.66598e-08
-1.49058e-09
1.8145e-08
-1.48524e-09
1.96215e-08
-1.47641e-09
2.1086e-08
-1.46451e-09
2.25358e-08
-1.44985e-09
2.39685e-08
-1.43264e-09
2.53815e-08
-1.41307e-09
2.67728e-08
-1.39128e-09
2.81402e-08
-1.36742e-09
2.94819e-08
-1.34164e-09
3.0796e-08
-1.31409e-09
3.20809e-08
-1.28493e-09
3.33352e-08
-1.25432e-09
3.45576e-08
-1.22243e-09
3.57471e-08
-1.18943e-09
3.69026e-08
-1.15549e-09
3.80233e-08
-1.12078e-09
3.91088e-08
-1.08547e-09
4.01585e-08
-1.04972e-09
4.11722e-08
-1.01368e-09
4.21497e-08
-9.77508e-10
4.30911e-08
-9.41331e-10
4.39963e-08
-9.05278e-10
4.48658e-08
-8.69468e-10
4.56998e-08
-8.34005e-10
4.64988e-08
-7.98987e-10
4.72633e-08
-7.64497e-10
4.79939e-08
-7.3061e-10
4.86913e-08
-6.97391e-10
4.93562e-08
-6.64895e-10
4.99894e-08
-6.33165e-10
5.05916e-08
-6.02243e-10
5.11637e-08
-5.72156e-10
5.17067e-08
-5.42927e-10
5.22212e-08
-5.14572e-10
5.27084e-08
-4.87103e-10
5.31689e-08
-4.60524e-10
5.36037e-08
-4.34835e-10
5.40137e-08
-4.10033e-10
5.43999e-08
-3.86111e-10
5.47629e-08
-3.63059e-10
5.51038e-08
-3.40862e-10
5.54233e-08
-3.19509e-10
5.57223e-08
-2.98978e-10
5.60015e-08
-2.79255e-10
5.62618e-08
-2.60317e-10
5.6504e-08
-2.42145e-10
5.67287e-08
-2.24717e-10
5.69367e-08
-2.08012e-10
5.71287e-08
-1.92005e-10
5.73054e-08
-1.76676e-10
5.74674e-08
-1.62001e-10
5.76154e-08
-1.47957e-10
5.77499e-08
-1.34523e-10
5.78716e-08
-1.21677e-10
5.79809e-08
-1.09395e-10
5.80786e-08
-9.76584e-11
5.8165e-08
-8.64439e-11
5.82408e-08
-7.57305e-11
5.83063e-08
-6.54994e-11
5.8362e-08
-5.57287e-11
5.84084e-08
-4.63999e-11
5.84459e-08
-3.74921e-11
5.84749e-08
-2.89895e-11
5.84958e-08
-2.08811e-11
5.8509e-08
-1.32032e-11
5.85153e-08
-6.27439e-12
5.85144e-08
8.96392e-13
5.85069e-08
7.47342e-12
5.84926e-08
1.42443e-11
5.84723e-08
2.03475e-11
5.84462e-08
2.61001e-11
5.84146e-08
3.15797e-11
5.83778e-08
3.68121e-11
5.8336e-08
4.18067e-11
5.82894e-08
4.65752e-11
5.82383e-08
5.112e-11
5.81829e-08
5.54441e-11
5.81233e-08
5.95609e-11
5.80598e-08
6.34832e-11
5.79926e-08
6.72293e-11
5.79218e-08
7.08087e-11
5.78475e-08
7.42301e-11
5.777e-08
7.75031e-11
5.76894e-08
8.06314e-11
5.76058e-08
8.36232e-11
5.75193e-08
8.64836e-11
5.74301e-08
8.92216e-11
5.73382e-08
9.18408e-11
5.72439e-08
9.43516e-11
5.71471e-08
9.67557e-11
5.70481e-08
9.90618e-11
5.69468e-08
1.01273e-10
5.68434e-08
1.03394e-10
5.6738e-08
1.0543e-10
5.66306e-08
1.07386e-10
5.65213e-08
1.09267e-10
5.64103e-08
1.11078e-10
5.62974e-08
1.12823e-10
5.61829e-08
1.14508e-10
5.60668e-08
1.16138e-10
5.59491e-08
1.17715e-10
5.58298e-08
1.19239e-10
5.57091e-08
1.20717e-10
5.5587e-08
1.22147e-10
5.54634e-08
1.23536e-10
5.53386e-08
1.24885e-10
5.52124e-08
1.26205e-10
5.50849e-08
1.275e-10
5.49561e-08
1.28778e-10
5.4826e-08
1.30041e-10
5.46948e-08
1.31288e-10
5.45622e-08
1.3252e-10
5.44285e-08
1.33733e-10
5.42936e-08
1.34928e-10
5.41575e-08
1.36104e-10
5.40202e-08
1.3726e-10
5.38818e-08
1.384e-10
5.37423e-08
1.39524e-10
5.36016e-08
1.40635e-10
5.34599e-08
1.41733e-10
5.33171e-08
1.4282e-10
5.31732e-08
1.43891e-10
5.30283e-08
1.4495e-10
5.28823e-08
1.45991e-10
5.27352e-08
1.47014e-10
5.25872e-08
1.48021e-10
5.24382e-08
1.49015e-10
5.22882e-08
1.50003e-10
5.21372e-08
1.50989e-10
5.19852e-08
1.51982e-10
5.18322e-08
1.52983e-10
5.16782e-08
1.53998e-10
5.15232e-08
1.55028e-10
5.13671e-08
1.56074e-10
5.121e-08
1.57137e-10
5.10518e-08
1.58218e-10
5.08925e-08
1.59322e-10
5.0732e-08
1.60453e-10
5.05704e-08
1.61618e-10
5.04076e-08
1.62824e-10
5.02435e-08
1.64083e-10
5.00781e-08
1.65409e-10
4.99113e-08
1.6682e-10
4.97429e-08
1.68339e-10
4.95729e-08
1.69996e-10
4.94011e-08
1.71833e-10
4.92272e-08
1.73901e-10
4.90509e-08
1.76269e-10
4.88719e-08
1.79026e-10
4.86896e-08
1.82295e-10
4.85034e-08
1.86237e-10
4.83123e-08
1.9107e-10
4.81152e-08
1.97097e-10
4.79105e-08
2.04736e-10
4.76959e-08
2.14583e-10
4.74684e-08
2.27499e-10
4.72236e-08
2.44776e-10
4.69552e-08
2.68419e-10
4.66535e-08
3.01714e-10
4.63031e-08
3.50411e-10
4.58772e-08
4.25912e-10
4.53253e-08
5.51876e-10
4.45117e-08
8.13541e-10
4.31608e-08
1.35092e-09
3.14414e-09
4.00167e-08
3.27258e-10
-3.91507e-10
1.20585e-09
-1.18364e-09
2.56661e-09
-1.92801e-09
4.33595e-09
-2.56722e-09
6.43846e-09
-3.08861e-09
8.80556e-09
-3.50086e-09
1.1378e-08
-3.81854e-09
1.41062e-08
-4.05763e-09
1.695e-08
-4.2333e-09
1.98772e-08
-4.35883e-09
2.28622e-08
-4.44518e-09
2.58851e-08
-4.50105e-09
2.89301e-08
-4.53309e-09
3.19846e-08
-4.5463e-09
3.50383e-08
-4.54432e-09
3.80828e-08
-4.52975e-09
4.11109e-08
-4.50448e-09
4.41162e-08
-4.46981e-09
4.70931e-08
-4.42674e-09
5.00364e-08
-4.37598e-09
5.29415e-08
-4.31813e-09
5.58039e-08
-4.25368e-09
5.86196e-08
-4.18312e-09
6.13848e-08
-4.10689e-09
6.40962e-08
-4.02544e-09
6.67505e-08
-3.93925e-09
6.9345e-08
-3.84879e-09
7.18771e-08
-3.75455e-09
7.43447e-08
-3.65701e-09
7.67458e-08
-3.55666e-09
7.9079e-08
-3.45399e-09
8.13431e-08
-3.34948e-09
8.35369e-08
-3.24359e-09
8.566e-08
-3.13675e-09
8.77119e-08
-3.0294e-09
8.96925e-08
-2.92191e-09
9.16018e-08
-2.81467e-09
9.34404e-08
-2.708e-09
9.52086e-08
-2.60223e-09
9.69072e-08
-2.49762e-09
9.85372e-08
-2.39444e-09
1.00099e-07
-2.2929e-09
1.01595e-07
-2.1932e-09
1.03026e-07
-2.0955e-09
1.04393e-07
-1.99995e-09
1.05697e-07
-1.90667e-09
1.06941e-07
-1.81575e-09
1.08125e-07
-1.72728e-09
1.09252e-07
-1.6413e-09
1.10323e-07
-1.55785e-09
1.11339e-07
-1.47697e-09
1.12303e-07
-1.39867e-09
1.13216e-07
-1.32294e-09
1.14079e-07
-1.24977e-09
1.14895e-07
-1.17914e-09
1.15666e-07
-1.11103e-09
1.16392e-07
-1.04539e-09
1.17075e-07
-9.82182e-10
1.17717e-07
-9.21362e-10
1.18319e-07
-8.62875e-10
1.18884e-07
-8.06671e-10
1.19412e-07
-7.52688e-10
1.19905e-07
-7.00867e-10
1.20364e-07
-6.51147e-10
1.20791e-07
-6.03465e-10
1.21186e-07
-5.5776e-10
1.21552e-07
-5.13967e-10
1.2189e-07
-4.72025e-10
1.222e-07
-4.31866e-10
1.22484e-07
-3.93434e-10
1.22743e-07
-3.56663e-10
1.22978e-07
-3.21495e-10
1.2319e-07
-2.87869e-10
1.23381e-07
-2.55725e-10
1.2355e-07
-2.2501e-10
1.23699e-07
-1.95666e-10
1.23829e-07
-1.67639e-10
1.23941e-07
-1.40878e-10
1.24036e-07
-1.15344e-10
1.24113e-07
-9.10008e-11
1.24175e-07
-6.78256e-11
1.24221e-07
-4.55875e-11
1.24253e-07
-2.43728e-11
1.24272e-07
-4.15332e-12
1.24277e-07
1.50415e-11
1.2427e-07
3.34151e-11
1.2425e-07
5.09005e-11
1.2422e-07
6.75449e-11
1.24178e-07
8.34104e-11
1.24126e-07
9.85564e-11
1.24064e-07
1.13009e-10
1.23993e-07
1.26795e-10
1.23912e-07
1.39946e-10
1.23823e-07
1.52499e-10
1.23726e-07
1.6449e-10
1.23621e-07
1.75946e-10
1.23508e-07
1.86892e-10
1.23389e-07
1.97346e-10
1.23262e-07
2.07336e-10
1.23129e-07
2.16875e-10
1.22989e-07
2.2599e-10
1.22844e-07
2.34698e-10
1.22692e-07
2.43022e-10
1.22536e-07
2.50982e-10
1.22374e-07
2.58594e-10
1.22207e-07
2.65879e-10
1.22036e-07
2.72852e-10
1.21859e-07
2.79533e-10
1.21679e-07
2.85936e-10
1.21494e-07
2.92082e-10
1.21305e-07
2.97983e-10
1.21113e-07
3.0366e-10
1.20917e-07
3.09127e-10
1.20717e-07
3.14402e-10
1.20513e-07
3.19494e-10
1.20307e-07
3.2442e-10
1.20097e-07
3.2919e-10
1.19884e-07
3.33812e-10
1.19667e-07
3.38298e-10
1.19448e-07
3.42658e-10
1.19226e-07
3.46901e-10
1.19001e-07
3.51038e-10
1.18774e-07
3.5508e-10
1.18544e-07
3.59037e-10
1.18311e-07
3.62917e-10
1.18075e-07
3.66724e-10
1.17837e-07
3.70458e-10
1.17597e-07
3.74126e-10
1.17354e-07
3.7773e-10
1.17109e-07
3.81274e-10
1.16862e-07
3.84766e-10
1.16612e-07
3.88211e-10
1.1636e-07
3.91614e-10
1.16105e-07
3.94982e-10
1.15849e-07
3.9832e-10
1.1559e-07
4.01627e-10
1.15329e-07
4.04913e-10
1.15066e-07
4.08173e-10
1.148e-07
4.11411e-10
1.14533e-07
4.14628e-10
1.14263e-07
4.17829e-10
1.13991e-07
4.21015e-10
1.13717e-07
4.24198e-10
1.1344e-07
4.27381e-10
1.13162e-07
4.30576e-10
1.12881e-07
4.33787e-10
1.12598e-07
4.37019e-10
1.12313e-07
4.40276e-10
1.12025e-07
4.43565e-10
1.11735e-07
4.46893e-10
1.11443e-07
4.50268e-10
1.11149e-07
4.53707e-10
1.10852e-07
4.5722e-10
1.10553e-07
4.60836e-10
1.10251e-07
4.64575e-10
1.09947e-07
4.68476e-10
1.0964e-07
4.72578e-10
1.09329e-07
4.7694e-10
1.09016e-07
4.81633e-10
1.08699e-07
4.86749e-10
1.08379e-07
4.92412e-10
1.08054e-07
4.98775e-10
1.07724e-07
5.06049e-10
1.07389e-07
5.14509e-10
1.07046e-07
5.24517e-10
1.06696e-07
5.36566e-10
1.06336e-07
5.51316e-10
1.05963e-07
5.69677e-10
1.05575e-07
5.92908e-10
1.05167e-07
6.22801e-10
1.04732e-07
6.6194e-10
1.04263e-07
7.14172e-10
1.03746e-07
7.8545e-10
1.03162e-07
8.85401e-10
1.02482e-07
1.03061e-09
1.01656e-07
1.25234e-09
1.00593e-07
1.6148e-09
9.91227e-08
2.28367e-09
9.6823e-08
3.65056e-09
6.71083e-09
9.32563e-08
4.6827e-10
-8.59777e-10
1.67964e-09
-2.39501e-09
3.49611e-09
-3.74448e-09
5.80263e-09
-4.87374e-09
8.50085e-09
-5.78682e-09
1.15082e-08
-6.50818e-09
1.47559e-08
-7.06624e-09
1.81875e-08
-7.48922e-09
2.17571e-08
-7.80293e-09
2.54278e-08
-8.02959e-09
2.91702e-08
-8.18754e-09
3.29606e-08
-8.29141e-09
3.678e-08
-8.35252e-09
4.06131e-08
-8.37945e-09
4.44474e-08
-8.37854e-09
4.8272e-08
-8.35443e-09
5.2078e-08
-8.31049e-09
5.58574e-08
-8.24916e-09
5.96029e-08
-8.17227e-09
6.33081e-08
-8.0812e-09
6.69671e-08
-7.97709e-09
7.05743e-08
-7.86091e-09
7.41247e-08
-7.73354e-09
7.76137e-08
-7.59584e-09
8.10369e-08
-7.44866e-09
8.43905e-08
-7.29285e-09
8.7671e-08
-7.12929e-09
9.08753e-08
-6.95883e-09
9.40007e-08
-6.78237e-09
9.70448e-08
-6.60078e-09
1.00006e-07
-6.41493e-09
1.02882e-07
-6.22566e-09
1.05672e-07
-6.0338e-09
1.08375e-07
-5.84013e-09
1.10991e-07
-5.6454e-09
1.1352e-07
-5.45031e-09
1.15961e-07
-5.25553e-09
1.18314e-07
-5.06165e-09
1.20581e-07
-4.86923e-09
1.22763e-07
-4.67878e-09
1.24859e-07
-4.49075e-09
1.26872e-07
-4.30554e-09
1.28802e-07
-4.12351e-09
1.30651e-07
-3.94497e-09
1.32422e-07
-3.77018e-09
1.34114e-07
-3.59936e-09
1.35731e-07
-3.4327e-09
1.37274e-07
-3.27034e-09
1.38745e-07
-3.11239e-09
1.40146e-07
-2.95895e-09
1.4148e-07
-2.81006e-09
1.42747e-07
-2.66576e-09
1.4395e-07
-2.52606e-09
1.45091e-07
-2.39094e-09
1.46172e-07
-2.26039e-09
1.47195e-07
-2.13435e-09
1.48163e-07
-2.01277e-09
1.49076e-07
-1.89558e-09
1.49938e-07
-1.7827e-09
1.50749e-07
-1.67407e-09
1.51512e-07
-1.56956e-09
1.52228e-07
-1.46911e-09
1.529e-07
-1.37259e-09
1.53529e-07
-1.2799e-09
1.54116e-07
-1.19095e-09
1.54664e-07
-1.10561e-09
1.55174e-07
-1.02379e-09
1.55647e-07
-9.45358e-10
1.56085e-07
-8.70218e-10
1.5649e-07
-7.98254e-10
1.56863e-07
-7.29361e-10
1.57205e-07
-6.6343e-10
1.57517e-07
-6.00351e-10
1.57802e-07
-5.40026e-10
1.58059e-07
-4.82348e-10
1.58291e-07
-4.27219e-10
1.58497e-07
-3.74542e-10
1.58681e-07
-3.24221e-10
1.58842e-07
-2.76168e-10
1.58981e-07
-2.30291e-10
1.591e-07
-1.86495e-10
1.59199e-07
-1.44667e-10
1.59279e-07
-1.04736e-10
1.59341e-07
-6.66508e-11
1.59387e-07
-3.03139e-11
1.59416e-07
4.00268e-12
1.5943e-07
3.71693e-11
1.59429e-07
6.85741e-11
1.59414e-07
9.85355e-11
1.59385e-07
1.27115e-10
1.59344e-07
1.5439e-10
1.5929e-07
1.80404e-10
1.59225e-07
2.0522e-10
1.59149e-07
2.28906e-10
1.59062e-07
2.51518e-10
1.58964e-07
2.7311e-10
1.58858e-07
2.9373e-10
1.58742e-07
3.13421e-10
1.58617e-07
3.32222e-10
1.58483e-07
3.50178e-10
1.58342e-07
3.67325e-10
1.58193e-07
3.83705e-10
1.58037e-07
3.99355e-10
1.57873e-07
4.14313e-10
1.57703e-07
4.28615e-10
1.57527e-07
4.42295e-10
1.57344e-07
4.55387e-10
1.57156e-07
4.67926e-10
1.56962e-07
4.7994e-10
1.56763e-07
4.91461e-10
1.56558e-07
5.02526e-10
1.56349e-07
5.1316e-10
1.56134e-07
5.23391e-10
1.55915e-07
5.33251e-10
1.55692e-07
5.42765e-10
1.55465e-07
5.51955e-10
1.55233e-07
5.60843e-10
1.54997e-07
5.69453e-10
1.54758e-07
5.77799e-10
1.54515e-07
5.85903e-10
1.54268e-07
5.93782e-10
1.54017e-07
6.01457e-10
1.53763e-07
6.08939e-10
1.53506e-07
6.16251e-10
1.53246e-07
6.23398e-10
1.52982e-07
6.30398e-10
1.52715e-07
6.37258e-10
1.52445e-07
6.43986e-10
1.52173e-07
6.50594e-10
1.51897e-07
6.57093e-10
1.51618e-07
6.63491e-10
1.51336e-07
6.69802e-10
1.51052e-07
6.76037e-10
1.50765e-07
6.82205e-10
1.50475e-07
6.88312e-10
1.50182e-07
6.94372e-10
1.49887e-07
7.00386e-10
1.49588e-07
7.06363e-10
1.49287e-07
7.12305e-10
1.48984e-07
7.18218e-10
1.48678e-07
7.2411e-10
1.48369e-07
7.29987e-10
1.48057e-07
7.3586e-10
1.47743e-07
7.41735e-10
1.47426e-07
7.47627e-10
1.47106e-07
7.5354e-10
1.46783e-07
7.59484e-10
1.46458e-07
7.65474e-10
1.4613e-07
7.71515e-10
1.45799e-07
7.77627e-10
1.45466e-07
7.83825e-10
1.45129e-07
7.90134e-10
1.4479e-07
7.96587e-10
1.44448e-07
8.03222e-10
1.44102e-07
8.10088e-10
1.43753e-07
8.17247e-10
1.43401e-07
8.2478e-10
1.43045e-07
8.32787e-10
1.42686e-07
8.41399e-10
1.42322e-07
8.50788e-10
1.41953e-07
8.6117e-10
1.41579e-07
8.72836e-10
1.41199e-07
8.86164e-10
1.40812e-07
9.01651e-10
1.40416e-07
9.19961e-10
1.40011e-07
9.4198e-10
1.39593e-07
9.68913e-10
1.3916e-07
1.0024e-09
1.38709e-07
1.04473e-09
1.38232e-07
1.0991e-09
1.37724e-07
1.17016e-09
1.37173e-07
1.26476e-09
1.36565e-07
1.3934e-09
1.35878e-07
1.57283e-09
1.35077e-07
1.83131e-09
1.3411e-07
2.21992e-09
1.32886e-07
2.83866e-09
1.31266e-07
3.90375e-09
1.2897e-07
5.94612e-09
9.60655e-09
1.26075e-07
5.20726e-10
-1.3805e-09
1.87804e-09
-3.75233e-09
3.91223e-09
-5.77867e-09
6.48629e-09
-7.44781e-09
9.48596e-09
-8.78649e-09
1.28181e-08
-9.84034e-09
1.64073e-08
-1.06554e-08
2.01926e-08
-1.12745e-08
2.41253e-08
-1.17356e-08
2.81664e-08
-1.20708e-08
3.2285e-08
-1.23061e-08
3.6456e-08
-1.24624e-08
4.06593e-08
-1.25558e-08
4.48785e-08
-1.25986e-08
4.90997e-08
-1.25998e-08
5.33115e-08
-1.25662e-08
5.75036e-08
-1.25026e-08
6.16672e-08
-1.24128e-08
6.57943e-08
-1.22994e-08
6.98777e-08
-1.21646e-08
7.39106e-08
-1.201e-08
7.78871e-08
-1.18374e-08
8.18014e-08
-1.16479e-08
8.56485e-08
-1.14429e-08
8.94237e-08
-1.12238e-08
9.31227e-08
-1.09919e-08
9.67418e-08
-1.07484e-08
1.00278e-07
-1.04946e-08
1.03727e-07
-1.0232e-08
1.07088e-07
-9.96176e-09
1.10358e-07
-9.68521e-09
1.13536e-07
-9.4036e-09
1.16621e-07
-9.11814e-09
1.19611e-07
-8.82998e-09
1.22505e-07
-8.54022e-09
1.25305e-07
-8.2499e-09
1.28009e-07
-7.95997e-09
1.30619e-07
-7.67132e-09
1.33135e-07
-7.38477e-09
1.35557e-07
-7.10106e-09
1.37887e-07
-6.82084e-09
1.40126e-07
-6.54472e-09
1.42276e-07
-6.27321e-09
1.44338e-07
-6.00676e-09
1.46313e-07
-5.74578e-09
1.48204e-07
-5.49058e-09
1.50013e-07
-5.24145e-09
1.51742e-07
-4.9986e-09
1.53391e-07
-4.76221e-09
1.54965e-07
-4.53241e-09
1.56464e-07
-4.30929e-09
1.57891e-07
-4.0929e-09
1.59248e-07
-3.88326e-09
1.60538e-07
-3.68038e-09
1.61762e-07
-3.48421e-09
1.62922e-07
-3.2947e-09
1.64021e-07
-3.11177e-09
1.65061e-07
-2.93534e-09
1.66043e-07
-2.7653e-09
1.66971e-07
-2.60153e-09
1.67845e-07
-2.4439e-09
1.68668e-07
-2.29228e-09
1.69442e-07
-2.14652e-09
1.70169e-07
-2.00647e-09
1.7085e-07
-1.87198e-09
1.71487e-07
-1.74288e-09
1.72082e-07
-1.61904e-09
1.72637e-07
-1.50027e-09
1.73153e-07
-1.38643e-09
1.73633e-07
-1.27736e-09
1.74076e-07
-1.17289e-09
1.74486e-07
-1.07286e-09
1.74862e-07
-9.77134e-10
1.75208e-07
-8.85545e-10
1.75523e-07
-7.97945e-10
1.7581e-07
-7.14185e-10
1.7607e-07
-6.34129e-10
1.76303e-07
-5.57623e-10
1.76512e-07
-4.8454e-10
1.76696e-07
-4.14738e-10
1.76858e-07
-3.48088e-10
1.76998e-07
-2.84448e-10
1.77117e-07
-2.23698e-10
1.77216e-07
-1.65731e-10
1.77296e-07
-1.10441e-10
1.77358e-07
-5.77729e-11
1.77402e-07
-7.61169e-12
1.77431e-07
4.02279e-11
1.77443e-07
8.59618e-11
1.77441e-07
1.29535e-10
1.77424e-07
1.71094e-10
1.77394e-07
2.10716e-10
1.7735e-07
2.48503e-10
1.77295e-07
2.84553e-10
1.77227e-07
3.18954e-10
1.77149e-07
3.51791e-10
1.77059e-07
3.83137e-10
1.7696e-07
4.13057e-10
1.7685e-07
4.41617e-10
1.76732e-07
4.68886e-10
1.76604e-07
4.94917e-10
1.76468e-07
5.19778e-10
1.76324e-07
5.43525e-10
1.76172e-07
5.66212e-10
1.76013e-07
5.879e-10
1.75846e-07
6.08638e-10
1.75673e-07
6.2848e-10
1.75494e-07
6.47473e-10
1.75308e-07
6.6567e-10
1.75116e-07
6.83115e-10
1.74919e-07
6.99854e-10
1.74716e-07
7.15937e-10
1.74508e-07
7.31402e-10
1.74295e-07
7.46288e-10
1.74077e-07
7.6064e-10
1.73855e-07
7.74492e-10
1.73628e-07
7.87873e-10
1.73396e-07
8.0082e-10
1.73161e-07
8.13364e-10
1.72921e-07
8.25529e-10
1.72678e-07
8.37343e-10
1.7243e-07
8.48838e-10
1.72179e-07
8.6003e-10
1.71924e-07
8.7095e-10
1.71666e-07
8.81617e-10
1.71404e-07
8.92047e-10
1.71139e-07
9.02264e-10
1.70871e-07
9.12275e-10
1.706e-07
9.22105e-10