/*--------------------------------*- C++ -*----------------------------------*\
  =========                 |
  \\      /  F ield         | OpenFOAM: The Open Source CFD Toolbox
   \\    /   O peration     | Website:  https://openfoam.org
    \\  /    A nd           | Version:  8
     \\/     M anipulation  |
\*---------------------------------------------------------------------------*/
FoamFile
{
    version     2.0;
    format      ascii;
    class       volVectorField;
    location    "0.06";
    object      U;
}
// * * * * * * * * * * * * * * * * * * * * * * * * * * * * * * * * * * * * * //

dimensions      [0 1 -1 0 0 0 0];

internalField   nonuniform List<vector> 
12225
(
(0.118228 0.022654 0)
(0.0813839 0.00405692 0)
(0.0521505 0.00043177 0)
(0.044394 0.000183286 0)
(0.0418796 9.81815e-05 0)
(0.0405354 3.64554e-05 0)
(0.0401067 -2.24161e-06 0)
(0.0402673 -3.05867e-05 0)
(0.0408436 -5.60776e-05 0)
(0.0417814 -8.32126e-05 0)
(0.0430919 -0.000116337 0)
(0.0448453 -0.000161246 0)
(0.0471872 -0.000227781 0)
(0.0503897 -0.000336305 0)
(0.0550036 -0.000545194 0)
(0.062197 -0.00100159 0)
(0.0767819 -0.00279681 0)
(0.106846 -0.0218733 0)
(0.247402 0.060357 0)
(0.199399 0.0198763 0)
(0.144874 0.00588458 0)
(0.12347 0.00231097 0)
(0.115718 0.00104993 0)
(0.111813 0.000455324 0)
(0.110385 7.1635e-05 0)
(0.110584 -0.000207096 0)
(0.111928 -0.000445627 0)
(0.114241 -0.000689623 0)
(0.117527 -0.000978502 0)
(0.121938 -0.00136075 0)
(0.127809 -0.00191412 0)
(0.135746 -0.00279125 0)
(0.146896 -0.00435573 0)
(0.163437 -0.00764643 0)
(0.19107 -0.016091 0)
(0.237604 -0.0497914 0)
(0.315504 0.0773091 0)
(0.2834 0.0369396 0)
(0.225463 0.0148275 0)
(0.194526 0.00668262 0)
(0.181768 0.00310517 0)
(0.175422 0.00138395 0)
(0.172869 0.000309163 0)
(0.17283 -0.00047287 0)
(0.174561 -0.00113309 0)
(0.177755 -0.00179459 0)
(0.182375 -0.00256256 0)
(0.188595 -0.00355966 0)
(0.196821 -0.00497228 0)
(0.207781 -0.00714164 0)
(0.222741 -0.0107897 0)
(0.243788 -0.017679 0)
(0.274597 -0.0324353 0)
(0.317598 -0.0712698 0)
(0.348262 0.0784084 0)
(0.338568 0.0507193 0)
(0.290941 0.0255441 0)
(0.256405 0.0130082 0)
(0.239807 0.00636248 0)
(0.231315 0.00293363 0)
(0.227602 0.000811072 0)
(0.227107 -0.000731485 0)
(0.228895 -0.00202089 0)
(0.232533 -0.0032879 0)
(0.237918 -0.00472841 0)
(0.24519 -0.0065597 0)
(0.254727 -0.00909325 0)
(0.267189 -0.0128602 0)
(0.283606 -0.0188744 0)
(0.305344 -0.0292682 0)
(0.333713 -0.0485774 0)
(0.366795 -0.0869238 0)
(0.361221 0.0719862 0)
(0.370476 0.0593531 0)
(0.339685 0.0356007 0)
(0.307566 0.020255 0)
(0.289276 0.0105836 0)
(0.279306 0.00508375 0)
(0.274575 0.00161812 0)
(0.273513 -0.000908047 0)
(0.275104 -0.00300761 0)
(0.278817 -0.00503607 0)
(0.284471 -0.00729371 0)
(0.292133 -0.0100979 0)
(0.302075 -0.0138746 0)
(0.314763 -0.0192948 0)
(0.330808 -0.0275119 0)
(0.350709 -0.0406177 0)
(0.374048 -0.0622453 0)
(0.396911 -0.0977673 0)
(0.363732 0.0620374 0)
(0.384921 0.0627247 0)
(0.371917 0.0433261 0)
(0.346738 0.0272533 0)
(0.329394 0.0153139 0)
(0.319055 0.00772693 0)
(0.313704 0.00274412 0)
(0.312121 -0.00093286 0)
(0.313365 -0.00398684 0)
(0.316869 -0.00689579 0)
(0.322382 -0.0100639 0)
(0.329875 -0.0139001 0)
(0.339475 -0.0189146 0)
(0.351398 -0.0258435 0)
(0.365815 -0.0358195 0)
(0.382508 -0.0506086 0)
(0.400129 -0.0727104 0)
(0.41449 -0.104438 0)
(0.361521 0.0510411 0)
(0.38766 0.0615889 0)
(0.389807 0.0478848 0)
(0.373769 0.0329432 0)
(0.359708 0.0198994 0)
(0.35034 0.0105888 0)
(0.345013 0.00410463 0)
(0.343134 -0.00079486 0)
(0.344016 -0.00488891 0)
(0.347137 -0.00874974 0)
(0.352209 -0.0128686 0)
(0.359113 -0.0177249 0)
(0.367823 -0.0238743 0)
(0.378312 -0.0320443 0)
(0.390391 -0.0432297 0)
(0.403387 -0.0587527 0)
(0.415639 -0.0800963 0)
(0.423555 -0.107809 0)
(0.357845 0.040507 0)
(0.383648 0.0571476 0)
(0.39667 0.049169 0)
(0.389775 0.0366079 0)
(0.380425 0.0236666 0)
(0.373241 0.0132749 0)
(0.368693 0.00551654 0)
(0.366892 -0.000549184 0)
(0.367532 -0.00568649 0)
(0.370221 -0.0105088 0)
(0.37468 -0.0155608 0)
(0.380724 -0.0213617 0)
(0.388201 -0.0284716 0)
(0.396893 -0.0375526 0)
(0.406371 -0.0493998 0)
(0.415754 -0.0648956 0)
(0.423452 -0.0847566 0)
(0.426726 -0.108616 0)
(0.354299 0.0312873 0)
(0.376601 0.0506903 0)
(0.396091 0.0475974 0)
(0.396829 0.0379623 0)
(0.392532 0.0260904 0)
(0.388305 0.0153623 0)
(0.385208 0.00672408 0)
(0.383915 -0.00031878 0)
(0.384526 -0.00640583 0)
(0.386844 -0.0121265 0)
(0.390639 -0.0180332 0)
(0.3957 -0.0246483 0)
(0.401793 -0.0324996 0)
(0.408579 -0.0421481 0)
(0.415511 -0.0541759 0)
(0.421689 -0.0690958 0)
(0.425774 -0.0871174 0)
(0.425833 -0.107476 0)
(0.351466 0.0237054 0)
(0.36893 0.0433491 0)
(0.391242 0.0438836 0)
(0.397426 0.0371185 0)
(0.397632 0.0268952 0)
(0.39656 0.0164997 0)
(0.395336 0.00745198 0)
(0.394918 -0.000277207 0)
(0.395745 -0.00712996 0)
(0.39782 -0.0136126 0)
(0.400998 -0.020238 0)
(0.405078 -0.0274938 0)
(0.409793 -0.0358468 0)
(0.414755 -0.0457415 0)
(0.419401 -0.0575656 0)
(0.422924 -0.071557 0)
(0.424293 -0.0876304 0)
(0.422217 -0.104912 0)
(0.34941 0.017695 0)
(0.361906 0.0359308 0)
(0.384484 0.0387788 0)
(0.393935 0.0344645 0)
(0.397593 0.0260896 0)
(0.399379 0.0165071 0)
(0.400128 0.00750156 0)
(0.400801 -0.000572498 0)
(0.402043 -0.00793881 0)
(0.404025 -0.0149828 0)
(0.406691 -0.022138 0)
(0.40988 -0.0298263 0)
(0.413334 -0.0384337 0)
(0.416679 -0.0482889 0)
(0.419406 -0.059621 0)
(0.420856 -0.0724845 0)
(0.420287 -0.086651 0)
(0.416891 -0.101291 0)
(0.348132 0.0135458 0)
(0.356642 0.0295645 0)
(0.378149 0.0333892 0)
(0.388983 0.0308407 0)
(0.394712 0.0240787 0)
(0.398555 0.0154508 0)
(0.400933 0.00680101 0)
(0.402634 -0.00128912 0)
(0.404356 -0.00887378 0)
(0.406367 -0.0162165 0)
(0.40868 -0.0236566 0)
(0.411178 -0.0315372 0)
(0.413641 -0.0401621 0)
(0.415743 -0.0497624 0)
(0.417056 -0.0604559 0)
(0.417072 -0.0721947 0)
(0.415277 -0.0847087 0)
(0.411167 -0.0972738 0)
(0.347213 0.0102083 0)
(0.352387 0.0237535 0)
(0.372471 0.0278245 0)
(0.383794 0.0265727 0)
(0.390696 0.0212198 0)
(0.396017 0.0135961 0)
(0.399762 0.00548685 0)
(0.402402 -0.00240169 0)
(0.404606 -0.00999493 0)
(0.406699 -0.0174418 0)
(0.408744 -0.0249838 0)
(0.41067 -0.03288 0)
(0.412307 -0.0413541 0)
(0.413391 -0.0505545 0)
(0.413589 -0.0605198 0)
(0.412531 -0.0711461 0)
(0.409888 -0.0821647 0)
(0.405328 -0.092935 0)
(0.346478 0.00731735 0)
(0.348698 0.0179085 0)
(0.367182 0.0216194 0)
(0.378384 0.0211572 0)
(0.385741 0.0170456 0)
(0.392018 0.010539 0)
(0.39686 0.00320119 0)
(0.400337 -0.00422484 0)
(0.402993 -0.0115704 0)
(0.405176 -0.0188846 0)
(0.406979 -0.0263038 0)
(0.408372 -0.0339929 0)
(0.409246 -0.042091 0)
(0.409416 -0.0506703 0)
(0.408658 -0.05971 0)
(0.406736 -0.0690816 0)
(0.403477 -0.0785465 0)
(0.398694 -0.0875655 0)
(0.345893 0.00473047 0)
(0.345591 0.0121382 0)
(0.362442 0.01498 0)
(0.37308 0.0147551 0)
(0.380268 0.0115865 0)
(0.386903 0.00620523 0)
(0.392422 -0.000182449 0)
(0.39649 -0.00688181 0)
(0.399468 -0.0136829 0)
(0.401684 -0.020562 0)
(0.403247 -0.0275621 0)
(0.40416 -0.0347581 0)
(0.404375 -0.0422106 0)
(0.403795 -0.0499298 0)
(0.402299 -0.0578589 0)
(0.39977 -0.0658705 0)
(0.396156 -0.0737726 0)
(0.39136 -0.0811321 0)
(0.345457 0.00248314 0)
(0.34313 0.00662229 0)
(0.358467 0.00809757 0)
(0.368286 0.0075874 0)
(0.374854 0.00499204 0)
(0.381301 0.000629897 0)
(0.387024 -0.00469247 0)
(0.391338 -0.0104279 0)
(0.394415 -0.0163794 0)
(0.396542 -0.0224846 0)
(0.397831 -0.0287246 0)
(0.398312 -0.0351046 0)
(0.39799 -0.0416245 0)
(0.396844 -0.0482522 0)
(0.394846 -0.0549152 0)
(0.391964 -0.0615029 0)
(0.388232 -0.0678726 0)
(0.383602 -0.0736908 0)
(0.345149 0.000519106 0)
(0.341331 0.00139115 0)
(0.355433 0.00109986 0)
(0.364381 -0.00012836 0)
(0.370093 -0.00250641 0)
(0.375961 -0.00599363 0)
(0.381451 -0.0101791 0)
(0.385648 -0.01474 0)
(0.388557 -0.0195438 0)
(0.390425 -0.0245323 0)
(0.39137 -0.0296635 0)
(0.391441 -0.0349046 0)
(0.390684 -0.040219 0)
(0.389138 -0.0455534 0)
(0.386836 -0.0508347 0)
(0.383807 -0.0559746 0)
(0.380135 -0.0608724 0)
(0.375786 -0.0652807 0)
(0.344955 -0.00128131 0)
(0.340213 -0.00368642 0)
(0.353513 -0.00602817 0)
(0.361766 -0.00828087 0)
(0.366646 -0.0106819 0)
(0.371761 -0.0133883 0)
(0.376708 -0.0163599 0)
(0.380465 -0.0195376 0)
(0.382933 -0.0229068 0)
(0.384343 -0.0264567 0)
(0.384829 -0.0301603 0)
(0.384459 -0.0339785 0)
(0.383309 -0.0378625 0)
(0.381455 -0.0417537 0)
(0.378968 -0.0455857 0)
(0.375905 -0.0492895 0)
(0.372375 -0.0527937 0)
(0.368342 -0.0559197 0)
(0.344895 -0.00318379 0)
(0.33995 -0.00910409 0)
(0.353118 -0.0136601 0)
(0.361126 -0.0170286 0)
(0.365491 -0.0194584 0)
(0.369932 -0.0212673 0)
(0.374159 -0.0227948 0)
(0.377177 -0.0242981 0)
(0.378898 -0.0259248 0)
(0.379585 -0.0277407 0)
(0.379406 -0.0297571 0)
(0.378459 -0.0319479 0)
(0.376841 -0.034265 0)
(0.374648 -0.0366492 0)
(0.371968 -0.0390383 0)
(0.368866 -0.0413737 0)
(0.365454 -0.0435983 0)
(0.361684 -0.0455861 0)
(0.345096 -0.00523583 0)
(0.341198 -0.0147457 0)
(0.355245 -0.0212748 0)
(0.363615 -0.0252875 0)
(0.367976 -0.0272614 0)
(0.371993 -0.0277957 0)
(0.375403 -0.0276355 0)
(0.377403 -0.0273508 0)
(0.37808 -0.0272403 0)
(0.377784 -0.0274288 0)
(0.376727 -0.0279457 0)
(0.375036 -0.0287619 0)
(0.372824 -0.0298164 0)
(0.37019 -0.0310375 0)
(0.367217 -0.0323553 0)
(0.363961 -0.0337074 0)
(0.360518 -0.0350376 0)
(0.356843 -0.0362544 0)
(0.345441 -0.00759302 0)
(0.343507 -0.0207373 0)
(0.359393 -0.0286294 0)
(0.368623 -0.0324374 0)
(0.373034 -0.0332552 0)
(0.37641 -0.0321271 0)
(0.378665 -0.0302049 0)
(0.379315 -0.0282984 0)
(0.378689 -0.0267784 0)
(0.377237 -0.0257646 0)
(0.375202 -0.0252554 0)
(0.372718 -0.0251842 0)
(0.369893 -0.0254573 0)
(0.366808 -0.0259791 0)
(0.363525 -0.026664 0)
(0.360081 -0.0274407 0)
(0.356548 -0.0282496 0)
(0.35288 -0.0290164 0)
(0.346107 -0.0109998 0)
(0.34764 -0.0282623 0)
(0.366292 -0.0366346 0)
(0.376193 -0.0391497 0)
(0.379871 -0.0379187 0)
(0.381674 -0.0345871 0)
(0.381932 -0.0307528 0)
(0.380604 -0.0273602 0)
(0.378273 -0.0247224 0)
(0.37544 -0.0228635 0)
(0.372322 -0.0216968 0)
(0.369018 -0.0210892 0)
(0.365591 -0.0209017 0)
(0.362081 -0.0210119 0)
(0.358513 -0.0213199 0)
(0.354896 -0.0217478 0)
(0.351275 -0.0222341 0)
(0.347601 -0.0227196 0)
(0.347435 -0.0162684 0)
(0.35446 -0.0377766 0)
(0.375917 -0.0449206 0)
(0.384809 -0.0446346 0)
(0.385811 -0.0403817 0)
(0.384466 -0.0344979 0)
(0.381671 -0.0289173 0)
(0.377804 -0.0244594 0)
(0.373562 -0.0211901 0)
(0.369345 -0.0189487 0)
(0.365244 -0.0175282 0)
(0.36126 -0.0167221 0)
(0.357375 -0.0163528 0)
(0.35357 -0.0162818 0)
(0.349825 -0.0164044 0)
(0.346119 -0.0166443 0)
(0.342471 -0.0169439 0)
(0.338835 -0.01726 0)
(0.349952 -0.0243671 0)
(0.364246 -0.048899 0)
(0.38622 -0.0520236 0)
(0.390317 -0.0472901 0)
(0.385804 -0.0394464 0)
(0.37972 -0.0313072 0)
(0.373239 -0.0247009 0)
(0.366821 -0.0199288 0)
(0.360948 -0.0166562 0)
(0.355712 -0.014516 0)
(0.350989 -0.0131994 0)
(0.346641 -0.0124561 0)
(0.342563 -0.012099 0)
(0.338674 -0.0119945 0)
(0.33492 -0.0120486 0)
(0.331258 -0.0121956 0)
(0.327685 -0.0123881 0)
(0.32417 -0.0125994 0)
(0.354019 -0.0360194 0)
(0.375025 -0.0597734 0)
(0.391569 -0.0554378 0)
(0.385583 -0.0453288 0)
(0.37321 -0.034425 0)
(0.361967 -0.0252576 0)
(0.352313 -0.0188207 0)
(0.344176 -0.0145972 0)
(0.337475 -0.0118822 0)
(0.331884 -0.0101935 0)
(0.327057 -0.00919532 0)
(0.322744 -0.00864915 0)
(0.318776 -0.00839343 0)
(0.315038 -0.0083206 0)
(0.31146 -0.00835808 0)
(0.30799 -0.00845698 0)
(0.304616 -0.00858218 0)
(0.301326 -0.00872293 0)
(0.358613 -0.0509799 0)
(0.380572 -0.0669547 0)
(0.382594 -0.0525367 0)
(0.362347 -0.0379592 0)
(0.342366 -0.0259877 0)
(0.327624 -0.0176654 0)
(0.316548 -0.0125737 0)
(0.308106 -0.00949431 0)
(0.301582 -0.00761494 0)
(0.296332 -0.00649607 0)
(0.29189 -0.00586026 0)
(0.287965 -0.0055262 0)
(0.284372 -0.00537932 0)
(0.280994 -0.00534642 0)
(0.277761 -0.00537932 0)
(0.27463 -0.00544611 0)
(0.271585 -0.00552332 0)
(0.268637 -0.0056116 0)
(0.358846 -0.0668202 0)
(0.369665 -0.0662968 0)
(0.348778 -0.0422281 0)
(0.315013 -0.026451 0)
(0.291421 -0.0162749 0)
(0.276449 -0.0104008 0)
(0.266112 -0.0072095 0)
(0.258688 -0.00537439 0)
(0.253138 -0.00429093 0)
(0.24873 -0.00366817 0)
(0.245016 -0.00332656 0)
(0.241729 -0.00315505 0)
(0.238708 -0.00308643 0)
(0.235857 -0.00307861 0)
(0.233121 -0.00310414 0)
(0.230467 -0.00314483 0)
(0.227881 -0.00318622 0)
(0.225397 -0.00323429 0)
(0.34243 -0.0767275 0)
(0.327921 -0.05454 0)
(0.283347 -0.0265493 0)
(0.243973 -0.0141467 0)
(0.222962 -0.00789682 0)
(0.210868 -0.00488456 0)
(0.202827 -0.00336493 0)
(0.197216 -0.00249947 0)
(0.193072 -0.00199964 0)
(0.189779 -0.00172105 0)
(0.186989 -0.00157309 0)
(0.184502 -0.00150248 0)
(0.182198 -0.00147776 0)
(0.180012 -0.00147935 0)
(0.177905 -0.00149444 0)
(0.175857 -0.00151432 0)
(0.17386 -0.00153102 0)
(0.171957 -0.00154859 0)
(0.285353 -0.0659105 0)
(0.241739 -0.0321698 0)
(0.187321 -0.0110715 0)
(0.155156 -0.00494171 0)
(0.141626 -0.00255744 0)
(0.13404 -0.0015898 0)
(0.129003 -0.00110166 0)
(0.125533 -0.000818026 0)
(0.122972 -0.000658683 0)
(0.120924 -0.00057255 0)
(0.119173 -0.000528194 0)
(0.117597 -0.000508235 0)
(0.116127 -0.000502489 0)
(0.114723 -0.000504597 0)
(0.113367 -0.000510351 0)
(0.112046 -0.00051674 0)
(0.110759 -0.000520074 0)
(0.109544 -0.000519808 0)
(0.14753 -0.0252306 0)
(0.102877 -0.00698911 0)
(0.0691629 -0.00104609 0)
(0.0557949 -0.000398267 0)
(0.0513409 -0.000236373 0)
(0.048696 -0.000154144 0)
(0.0469162 -0.000106946 0)
(0.0456992 -7.95219e-05 0)
(0.0447964 -6.4608e-05 0)
(0.0440665 -5.6618e-05 0)
(0.0434353 -5.25018e-05 0)
(0.0428617 -5.06518e-05 0)
(0.0423223 -5.00923e-05 0)
(0.0418047 -5.02112e-05 0)
(0.0413027 -5.05482e-05 0)
(0.0408135 -5.07887e-05 0)
(0.0403364 -5.13428e-05 0)
(0.0398938 -4.94109e-05 0)
(-8.1825e-06 2.10384e-05 2.19735e-20)
(0.000151481 -5.9294e-05 -2.85354e-20)
(0.00053326 -0.000178168 0)
(0.00114517 -0.00028714 0)
(0.00194555 -0.000375316 0)
(0.00289542 -0.000442677 2.85781e-20)
(0.00396028 -0.000491985 0)
(0.00511179 -0.000526719 0)
(0.006327 -0.000550232 0)
(0.00758792 -0.000565348 0)
(0.0088807 -0.000574278 -2.84833e-20)
(0.0101948 -0.000578669 0)
(0.0115222 -0.00057971 0)
(0.0128567 -0.000578231 0)
(0.0141933 -0.0005748 0)
(0.0155283 -0.000569797 -2.8297e-20)
(0.0168581 -0.000563474 0)
(0.0181799 -0.000555999 0)
(0.0194912 -0.000547492 0)
(0.0207896 -0.000538041 0)
(0.0220729 -0.000527719 0)
(0.023339 -0.000516594 0)
(0.024586 -0.000504735 0)
(0.0258122 -0.00049221 -2.78622e-20)
(0.0270158 -0.000479093 2.77978e-20)
(0.0281953 -0.000465459 -2.77314e-20)
(0.0293493 -0.000451387 -2.7663e-20)
(0.0304766 -0.000436957 0)
(0.031576 -0.000422248 0)
(0.0326466 -0.000407338 2.7447e-20)
(0.0336877 -0.000392303 2.73715e-20)
(0.0346985 -0.000377215 0)
(0.0356785 -0.000362144 0)
(0.0366275 -0.000347153 2.71349e-20)
(0.0375451 -0.000332301 0)
(0.0384313 -0.00031764 0)
(0.0392861 -0.000303218 -2.6884e-20)
(0.0401096 -0.000289077 0)
(0.040902 -0.000275253 -2.67092e-20)
(0.0416637 -0.000261776 -5.32391e-20)
(0.042395 -0.000248672 0)
(0.0430964 -0.000235962 0)
(0.0437686 -0.000223661 0)
(0.0444119 -0.00021178 0)
(0.0450272 -0.000200329 0)
(0.0456149 -0.00018931 -5.21028e-20)
(0.046176 -0.000178727 -5.19035e-20)
(0.0467111 -0.000168576 -5.17014e-20)
(0.0472209 -0.000158855 0)
(0.0477062 -0.000149557 5.12888e-20)
(0.0481677 -0.000140676 0)
(0.0486064 -0.000132202 -5.08652e-20)
(0.0490228 -0.000124126 -5.06492e-20)
(0.0494179 -0.000116435 0)
(0.0497923 -0.000109119 0)
(0.0501468 -0.000102165 0)
(0.0504821 -9.55612e-05 -4.97579e-20)
(0.0507991 -8.92935e-05 0)
(0.0510983 -8.33493e-05 0)
(0.0513806 -7.77155e-05 0)
(0.0516465 -7.2379e-05 0)
(0.0518968 -6.7327e-05 0)
(0.0521321 -6.25466e-05 0)
(0.052353 -5.80255e-05 0)
(0.0525601 -5.37514e-05 0)
(0.0527541 -4.97123e-05 4.75961e-20)
(0.0529354 -4.58968e-05 0)
(0.0531046 -4.22935e-05 0)
(0.0532623 -3.88915e-05 -4.6829e-20)
(0.053409 -3.56799e-05 -4.65683e-20)
(0.0535451 -3.26484e-05 0)
(0.0536712 -2.97864e-05 4.60396e-20)
(0.0537877 -2.70836e-05 -4.57717e-20)
(0.053895 -2.4529e-05 0)
(0.0539935 -2.21111e-05 4.52288e-20)
(0.0540837 -1.98165e-05 0)
(0.0541659 -1.76291e-05 0)
(0.0542405 -1.55267e-05 -4.43973e-20)
(0.0543078 -1.34765e-05 0)
(0.0543683 -1.14351e-05 4.3832e-20)
(0.0544225 -9.44783e-06 0)
(0.0544705 -7.8468e-06 -4.32582e-20)
(0.0545126 -6.58608e-06 -4.29679e-20)
(0.0545489 -5.69748e-06 -4.26756e-20)
(0.0545796 -4.84356e-06 -8.47628e-20)
(0.0546051 -3.94121e-06 8.41706e-20)
(0.0546259 -3.01079e-06 0)
(0.054642 -2.09929e-06 0)
(0.0546538 -1.22208e-06 0)
(0.0546614 -3.87776e-07 8.17651e-20)
(0.054665 3.98946e-07 8.11551e-20)
(0.0546649 1.13697e-06 -8.05417e-20)
(0.0546612 1.828e-06 0)
(0.0546541 2.47541e-06 7.93054e-20)
(0.0546437 3.08238e-06 7.86827e-20)
(0.0546303 3.65122e-06 7.80569e-20)
(0.0546139 4.18323e-06 0)
(0.0545948 4.67944e-06 0)
(0.054573 5.14118e-06 0)
(0.0545487 5.56989e-06 7.55258e-20)
(0.054522 5.96725e-06 0)
(0.054493 6.33478e-06 0)
(0.0544618 6.67408e-06 -7.36005e-20)
(0.0544286 6.98646e-06 0)
(0.0543934 7.27334e-06 0)
(0.0543563 7.53589e-06 -7.16547e-20)
(0.0543174 7.77539e-06 0)
(0.0542768 7.99309e-06 0)
(0.0542346 8.19043e-06 6.9691e-20)
(0.0541908 8.36897e-06 6.90329e-20)
(0.0541456 8.53038e-06 0)
(0.0540989 8.67634e-06 -6.77119e-20)
(0.0540509 8.80844e-06 0)
(0.0540016 8.92809e-06 6.63851e-20)
(0.0539511 9.03641e-06 0)
(0.0538994 9.13423e-06 6.50533e-20)
(0.0538465 9.22216e-06 6.43857e-20)
(0.0537926 9.30041e-06 0)
(0.0537376 9.36936e-06 0)
(0.0536816 9.4294e-06 0)
(0.0536246 9.48156e-06 0)
(0.0535667 9.52713e-06 0)
(0.0535079 9.56768e-06 0)
(0.0534482 9.60435e-06 0)
(0.0533876 9.63765e-06 5.90162e-20)
(0.0533262 9.66745e-06 -5.83427e-20)
(0.0532639 9.69316e-06 0)
(0.0532008 9.71431e-06 0)
(0.0531368 9.73062e-06 0)
(0.0530721 9.74218e-06 0)
(0.0530066 9.74947e-06 -1.09946e-19)
(0.0529403 9.75296e-06 0)
(0.0528732 9.75333e-06 1.07251e-19)
(0.0528055 9.75105e-06 -1.05905e-19)
(0.052737 9.74655e-06 0)
(0.0526678 9.74e-06 0)
(0.0525979 9.73145e-06 0)
(0.0525273 9.72058e-06 1.00528e-19)
(0.052456 9.70705e-06 9.91874e-20)
(0.0523841 9.69053e-06 0)
(0.0523116 9.67101e-06 9.65096e-20)
(0.0522384 9.64905e-06 9.51733e-20)
(0.0521646 9.62562e-06 -9.38387e-20)
(0.0520901 9.60191e-06 0)
(0.0520151 9.57892e-06 0)
(0.0519394 9.55734e-06 -8.98473e-20)
(0.0518631 9.53748e-06 0)
(0.0517862 9.51943e-06 0)
(0.0517086 9.50318e-06 0)
(0.0516302 9.48886e-06 0)
(0.0515512 9.47682e-06 8.32423e-20)
(0.0514715 9.46759e-06 8.19294e-20)
(0.051391 9.46191e-06 0)
(0.0513097 9.46082e-06 7.93126e-20)
(0.0512276 9.46555e-06 0)
(0.0511447 9.4778e-06 0)
(0.0510607 9.49963e-06 7.54116e-20)
(0.0509758 9.53376e-06 0)
(0.0508898 9.58364e-06 7.28282e-20)
(0.0508025 9.65379e-06 0)
(0.0507138 9.75002e-06 0)
(0.0506234 9.87995e-06 6.89815e-20)
(0.0505312 1.00534e-05 0)
(0.0504367 1.02835e-05 6.64372e-20)
(0.0503395 1.05874e-05 0)
(0.0502389 1.0988e-05 0)
(0.0501342 1.15165e-05 0)
(0.0500242 1.22155e-05 -6.14023e-20)
(0.0499075 1.31441e-05 0)
(0.0497821 1.43864e-05 5.89147e-20)
(0.0496452 1.60638e-05 0)
(0.0494931 1.83558e-05 0)
(0.0493201 2.15416e-05 0)
(0.049118 2.60837e-05 0)
(0.0488741 3.27918e-05 0)
(0.0485671 4.33653e-05 0)
(0.0481605 6.09138e-05 0)
(0.0475576 0.000105416 -9.85287e-20)
(0.0467493 0.000156933 0)
(0.0437367 0.000669384 0)
(5.37773e-05 -0.000358259 -6.93872e-20)
(0.000593029 -0.0012123 9.14913e-20)
(0.00157958 -0.00206609 0)
(0.00298465 -0.00280649 -6.09614e-20)
(0.00472149 -0.00340205 0)
(0.00672264 -0.00386019 -3.0408e-20)
(0.00893148 -0.00419949 6.07102e-20)
(0.0113006 -0.00444134 6.0592e-20)
(0.0137907 -0.00460606 0)
(0.01637 -0.00471119 6.03216e-20)
(0.0190132 -0.00477093 3.00881e-20)
(0.0217005 -0.00479633 0)
(0.0244164 -0.0047957 0)
(0.0271483 -0.00477512 0)
(0.0298864 -0.00473895 0)
(0.0326225 -0.00469029 2.96719e-20)
(0.0353497 -0.00463132 0)
(0.0380619 -0.0045636 -5.89778e-20)
(0.040754 -0.00448826 0)
(0.0434211 -0.00440617 0)
(0.0460589 -0.00431804 5.84122e-20)
(0.0486632 -0.00422449 0)
(0.0512302 -0.00412609 -5.80247e-20)
(0.0537566 -0.00402339 2.89157e-20)
(0.0562389 -0.00391694 -2.8817e-20)
(0.0586742 -0.00380729 2.87178e-20)
(0.0610599 -0.00369498 2.86181e-20)
(0.0633934 -0.00358055 0)
(0.0656726 -0.00346453 0)
(0.0678957 -0.00334745 -2.83173e-20)
(0.070061 -0.0032298 2.82143e-20)
(0.0721672 -0.00311206 0)
(0.0742133 -0.00299469 0)
(0.0761985 -0.00287809 -2.79138e-20)
(0.0781222 -0.00276265 0)
(0.0799841 -0.00264873 0)
(0.0817842 -0.00253663 2.76103e-20)
(0.0835226 -0.00242664 0)
(0.0851996 -0.00231899 -2.74056e-20)
(0.0868158 -0.0022139 5.46119e-20)
(0.0883717 -0.00211154 0)
(0.0898681 -0.00201204 0)
(0.091306 -0.00191554 1.07999e-19)
(0.0926864 -0.00182211 1.0759e-19)
(0.0940105 -0.00173181 1.0718e-19)
(0.0952794 -0.00164468 -5.33833e-20)
(0.0964945 -0.00156074 5.31804e-20)
(0.097657 -0.00148 1.58918e-19)
(0.0987683 -0.00140242 -1.0553e-19)
(0.0998299 -0.00132799 -5.2558e-20)
(0.100843 -0.00125666 0)
(0.10181 -0.00118837 5.21388e-20)
(0.102731 -0.00112306 -5.19252e-20)
(0.103608 -0.00106067 0)
(0.104443 -0.00100112 0)
(0.105236 -0.00094432 0)
(0.10599 -0.000890197 5.10713e-20)
(0.106706 -0.000838662 0)
(0.107386 -0.000789625 -1.01269e-19)
(0.10803 -0.000742998 0)
(0.108639 -0.000698691 -1.00385e-19)
(0.109216 -0.000656615 0)
(0.109762 -0.00061668 9.94878e-20)
(0.110278 -0.0005788 0)
(0.110764 -0.000542888 -9.85776e-20)
(0.111223 -0.000508859 4.90579e-20)
(0.111655 -0.000476631 0)
(0.112061 -0.000446123 9.71853e-20)
(0.112443 -0.000417257 4.83574e-20)
(0.112802 -0.000389957 4.81197e-20)
(0.113138 -0.000364149 0)
(0.113453 -0.00033976 4.76374e-20)
(0.113748 -0.000316722 4.73948e-20)
(0.114023 -0.000294966 0)
(0.114279 -0.000274426 -4.69015e-20)
(0.114517 -0.000255036 9.33028e-20)
(0.114738 -0.00023673 0)
(0.114943 -0.000219439 4.61462e-20)
(0.115133 -0.000203093 0)
(0.115307 -0.00018762 -1.36896e-19)
(0.115468 -0.000173009 0)
(0.115615 -0.000159453 1.3533e-19)
(0.115749 -0.000146905 4.48457e-20)
(0.115871 -0.000135348 -4.45786e-20)
(0.115981 -0.000124566 -8.86189e-20)
(0.116081 -0.000114466 8.80757e-20)
(0.11617 -0.000104897 0)
(0.116248 -9.58659e-05 0)
(0.116318 -8.7366e-05 0)
(0.116378 -7.93779e-05 -2.57592e-19)
(0.11643 -7.18903e-05 -8.53014e-20)
(0.116474 -6.48815e-05 8.47348e-20)
(0.11651 -5.83233e-05 0)
(0.116538 -5.21858e-05 8.35894e-20)
(0.11656 -4.64412e-05 -8.30121e-20)
(0.116575 -4.10659e-05 -8.24304e-20)
(0.116583 -3.60401e-05 0)
(0.116585 -3.13467e-05 0)
(0.116582 -2.69692e-05 0)
(0.116573 -2.28913e-05 -8.00673e-20)
(0.116559 -1.90964e-05 0)
(0.11654 -1.55685e-05 1.57729e-19)
(0.116516 -1.22916e-05 2.34774e-19)
(0.116488 -9.25107e-06 -1.55297e-19)
(0.116456 -6.43274e-06 0)
(0.116419 -3.8236e-06 -7.64189e-20)
(0.116379 -1.41126e-06 0)
(0.116336 8.16108e-07 -1.50355e-19)
(0.116289 2.87014e-06 7.45517e-20)
(0.116238 4.76236e-06 7.39233e-20)
(0.116185 6.50423e-06 0)
(0.116129 8.10692e-06 2.17975e-19)
(0.11607 9.58111e-06 -1.44043e-19)
(0.116008 1.09366e-05 -7.13822e-20)
(0.115944 1.21822e-05 0)
(0.115877 1.33257e-05 -7.00958e-20)
(0.115808 1.43739e-05 -2.08347e-19)
(0.115737 1.53328e-05 0)
(0.115664 1.62084e-05 -1.36296e-19)
(0.115588 1.70069e-05 -1.34989e-19)
(0.115511 1.77355e-05 -1.33677e-19)
(0.115432 1.84018e-05 0)
(0.115351 1.90131e-05 0)
(0.115268 1.95758e-05 0)
(0.115184 2.00938e-05 6.41953e-20)
(0.115098 2.05694e-05 6.35301e-20)
(0.11501 2.10031e-05 0)
(0.114921 2.13955e-05 1.24389e-19)
(0.11483 2.17477e-05 1.23049e-19)
(0.114738 2.20616e-05 0)
(0.114645 2.23402e-05 1.2036e-19)
(0.11455 2.25865e-05 2.38023e-19)
(0.114454 2.28037e-05 -1.17661e-19)
(0.114356 2.29947e-05 -1.16307e-19)
(0.114257 2.31617e-05 0)
(0.114157 2.33061e-05 0)
(0.114056 2.34292e-05 0)
(0.113953 2.3531e-05 -1.10876e-19)
(0.113849 2.3612e-05 1.09514e-19)
(0.113744 2.36729e-05 2.16301e-19)
(0.113638 2.37159e-05 -1.06786e-19)
(0.113531 2.37443e-05 1.0542e-19)
(0.113422 2.37628e-05 1.04054e-19)
(0.113312 2.37765e-05 0)
(0.113201 2.37897e-05 0)
(0.113088 2.3806e-05 -9.99494e-20)
(0.112974 2.38273e-05 0)
(0.112859 2.38552e-05 0)
(0.112743 2.38909e-05 1.91682e-19)
(0.112626 2.39365e-05 0)
(0.112507 2.39947e-05 9.31011e-20)
(0.112386 2.40698e-05 -9.17316e-20)
(0.112265 2.41669e-05 0)
(0.112142 2.42934e-05 8.89931e-20)
(0.112017 2.44581e-05 0)
(0.111891 2.46724e-05 0)
(0.111763 2.49506e-05 -8.48901e-20)
(0.111633 2.53113e-05 1.67048e-19)
(0.111501 2.57781e-05 -8.21592e-20)
(0.111367 2.63814e-05 0)
(0.11123 2.71605e-05 0)
(0.11109 2.81667e-05 7.80722e-20)
(0.110946 2.94665e-05 0)
(0.110797 3.11476e-05 7.53556e-20)
(0.110644 3.33258e-05 0)
(0.110483 3.61555e-05 0)
(0.110315 3.98451e-05 0)
(0.110136 4.46788e-05 6.99488e-20)
(0.109943 5.10505e-05 0)
(0.109733 5.95163e-05 -6.72625e-20)
(0.109501 7.08793e-05 0)
(0.109237 8.6333e-05 0)
(0.108932 0.000107724 1.26529e-19)
(0.108569 0.000138061 -1.23887e-19)
(0.108124 0.000182585 0)
(0.107555 0.000251445 0)
(0.106798 0.000366011 0)
(0.105695 0.000588343 3.40579e-19)
(0.104262 0.00106294 0)
(0.100216 0.00226739 -2.1682e-19)
(8.00226e-05 -0.00114672 -1.95809e-24)
(0.000840971 -0.00326295 -1.21751e-19)
(0.00217854 -0.00514598 0)
(0.00403065 -0.00671395 1.21374e-19)
(0.00627593 -0.00796143 0)
(0.00882968 -0.00892231 0)
(0.0116258 -0.00963958 4.78136e-24)
(0.0146104 -0.0101569 -6.00361e-20)
(0.0177386 -0.0105144 -5.98481e-20)
(0.0209744 -0.0107464 -5.96426e-20)
(0.0242885 -0.0108812 0)
(0.0276579 -0.010941 0)
(0.031064 -0.0109428 5.90108e-20)
(0.0344918 -0.0108995 1.1758e-19)
(0.037929 -0.0108206 -1.17132e-19)
(0.0413655 -0.0107128 0)
(0.0447927 -0.0105811 -1.1622e-19)
(0.0482028 -0.0104292 5.78744e-20)
(0.0515894 -0.0102599 0)
(0.0549462 -0.0100751 -1.14828e-19)
(0.0582677 -0.0098767 -5.71755e-20)
(0.0615489 -0.00966612 1.13891e-19)
(0.064785 -0.00944471 5.67072e-20)
(0.0679716 -0.00921376 0)
(0.0711047 -0.0089745 -1.12487e-19)
(0.0741806 -0.00872817 -1.12021e-19)
(0.0771959 -0.00847597 0)
(0.0801477 -0.00821908 -1.11093e-19)
(0.0830332 -0.00795867 0)
(0.08585 -0.00769587 -1.10172e-19)
(0.0885964 -0.00743177 -5.48546e-20)
(0.0912704 -0.00716739 0)
(0.093871 -0.00690372 0)
(0.0963969 -0.00664166 0)
(0.0988476 -0.00638206 0)
(0.101223 -0.00612566 0)
(0.103522 -0.00587317 0)
(0.105745 -0.00562518 -1.06583e-19)
(0.107893 -0.00538225 1.59215e-19)
(0.109965 -0.00514482 0)
(0.111964 -0.0049133 0)
(0.113889 -0.00468801 0)
(0.115742 -0.00446922 2.52987e-24)
(0.117523 -0.00425712 -1.03976e-19)
(0.119235 -0.00405187 -2.07095e-19)
(0.120879 -0.00385357 2.06238e-19)
(0.122455 -0.00366227 1.02692e-19)
(0.123966 -0.00347799 -1.02263e-19)
(0.125414 -0.00330071 -1.46122e-24)
(0.126799 -0.00313037 -1.01411e-19)
(0.128124 -0.00296691 0)
(0.12939 -0.0028102 -1.00556e-19)
(0.130599 -0.00266014 -9.72256e-25)
(0.131754 -0.00251657 0)
(0.132854 -0.00237936 0)
(0.133904 -0.00224832 9.88396e-20)
(0.134903 -0.00212328 0)
(0.135854 -0.00200407 0)
(0.136759 -0.00189049 -9.75403e-20)
(0.137619 -0.00178235 -1.94206e-19)
(0.138436 -0.00167947 9.66645e-20)
(0.139211 -0.00158166 0)
(0.139947 -0.00148871 -9.57816e-20)
(0.140644 -0.00140044 0)
(0.141304 -0.00131666 -9.48899e-20)
(0.141928 -0.0012372 -9.44397e-20)
(0.142519 -0.00116185 1.87975e-19)
(0.143077 -0.00109046 9.35323e-20)
(0.143604 -0.00102285 0)
(0.144101 -0.000958841 -1.85226e-19)
(0.144569 -0.000898282 0)
(0.14501 -0.000841011 -2.75045e-19)
(0.145425 -0.000786876 -1.82423e-19)
(0.145814 -0.000735731 -1.81476e-19)
(0.146179 -0.000687432 1.80522e-19)
(0.146522 -0.000641844 -2.69342e-19)
(0.146843 -0.000598838 0)
(0.147142 -0.00055829 0)
(0.147422 -0.000520085 1.76638e-19)
(0.147683 -0.000484118 2.63475e-19)
(0.147925 -0.000450271 0)
(0.14815 -0.000418342 -8.68257e-20)
(0.148359 -0.000388246 0)
(0.148552 -0.000359873 2.57436e-19)
(0.148729 -0.000333244 1.20613e-25)
(0.148893 -0.000308317 -1.29649e-25)
(0.149043 -0.00028506 -1.68514e-19)
(0.149181 -0.000263242 0)
(0.149306 -0.000242731 1.66397e-19)
(0.149419 -0.000223466 1.44186e-25)
(0.149521 -0.0002054 0)
(0.149613 -0.000188477 0)
(0.149695 -0.00017263 0)
(0.149767 -0.000157788 -1.60986e-19)
(0.149831 -0.000143892 0)
(0.149886 -0.000130886 0)
(0.149932 -0.000118724 0)
(0.149971 -0.00010736 0)
(0.150003 -9.67527e-05 0)
(0.150027 -8.68615e-05 -1.54273e-19)
(0.150045 -7.76467e-05 0)
(0.150057 -6.907e-05 -1.51984e-19)
(0.150063 -6.10943e-05 -1.5083e-19)
(0.150063 -5.36845e-05 1.4967e-19)
(0.150058 -4.68071e-05 0)
(0.150048 -4.04302e-05 1.47331e-19)
(0.150033 -3.45234e-05 0)
(0.150014 -2.90573e-05 1.44968e-19)
(0.14999 -2.40034e-05 -1.43778e-19)
(0.149962 -1.93343e-05 -4.27749e-19)
(0.149931 -1.5023e-05 0)
(0.149895 -1.10438e-05 -4.20527e-19)
(0.149857 -7.37249e-06 -1.38964e-19)
(0.149815 -3.98619e-06 0)
(0.14977 -8.63826e-07 -2.73052e-19)
(0.149721 2.0138e-06 -2.70599e-19)
(0.149671 4.6644e-06 4.02205e-19)
(0.149617 7.10397e-06 0)
(0.149561 9.34757e-06 1.31592e-19)
(0.149502 1.14092e-05 1.30347e-19)
(0.149441 1.33029e-05 3.87295e-19)
(0.149378 1.50418e-05 0)
(0.149312 1.66389e-05 0)
(0.149245 1.81052e-05 0)
(0.149175 1.94499e-05 1.24063e-19)
(0.149104 2.06807e-05 0)
(0.149031 2.18036e-05 0)
(0.148956 2.28249e-05 -1.20248e-19)
(0.148879 2.3751e-05 -1.1897e-19)
(0.148801 2.45889e-05 0)
(0.148721 2.53464e-05 0)
(0.14864 2.60309e-05 -2.30236e-19)
(0.148557 2.66496e-05 0)
(0.148472 2.72092e-05 2.25074e-19)
(0.148386 2.77153e-05 2.22486e-19)
(0.148299 2.81728e-05 0)
(0.14821 2.8586e-05 0)
(0.148121 2.89583e-05 -2.14696e-19)
(0.148029 2.9293e-05 -1.47695e-25)
(0.147937 2.95932e-05 -1.34153e-25)
(0.147843 2.98628e-05 0)
(0.147747 3.01067e-05 -4.08524e-19)
(0.147651 3.03301e-05 0)
(0.147553 3.0539e-05 0)
(0.147453 3.07386e-05 0)
(0.147353 3.09335e-05 1.93786e-19)
(0.147251 3.11277e-05 0)
(0.147148 3.1325e-05 -3.77075e-19)
(0.147043 3.15301e-05 -1.85911e-19)
(0.146937 3.1749e-05 0)
(0.14683 3.19895e-05 -1.80657e-19)
(0.146721 3.22618e-05 0)
(0.146611 3.25788e-05 0)
(0.146499 3.29565e-05 -5.18313e-19)
(0.146386 3.34153e-05 3.40286e-19)
(0.146271 3.39802e-05 0)
(0.146153 3.46834e-05 3.29776e-19)
(0.146034 3.55652e-05 -1.62262e-19)
(0.145913 3.66777e-05 0)
(0.145788 3.80875e-05 0)
(0.145661 3.98802e-05 0)
(0.14553 4.21676e-05 -4.5532e-19)
(0.145394 4.50947e-05 0)
(0.145254 4.88525e-05 -1.46542e-19)
(0.145107 5.36928e-05 0)
(0.144952 5.99513e-05 0)