/*--------------------------------*- C++ -*----------------------------------*\
  =========                 |
  \\      /  F ield         | OpenFOAM: The Open Source CFD Toolbox
   \\    /   O peration     | Website:  https://openfoam.org
    \\  /    A nd           | Version:  8
     \\/     M anipulation  |
\*---------------------------------------------------------------------------*/
FoamFile
{
    version     2.0;
    format      ascii;
    class       volScalarField;
    location    "0.64";
    object      p;
}
// * * * * * * * * * * * * * * * * * * * * * * * * * * * * * * * * * * * * * //

dimensions      [0 2 -2 0 0 0 0];

internalField   nonuniform List<scalar> 
12225
(
-0.00550595
-0.00547399
-0.00544279
-0.00541912
-0.00540921
-0.00541622
-0.00544309
-0.0054927
-0.00556838
-0.00567446
-0.00581723
-0.00600662
-0.00625938
-0.00660576
-0.00710236
-0.00785819
-0.009176
-0.012333
-0.00550571
-0.00547717
-0.0054493
-0.00542875
-0.00542181
-0.00543173
-0.00546151
-0.0055141
-0.00559288
-0.00570224
-0.00584845
-0.00604127
-0.00629669
-0.00664228
-0.00712585
-0.00783189
-0.00892383
-0.0110585
-0.00550671
-0.00548129
-0.00545711
-0.00544013
-0.00543662
-0.00544988
-0.00548296
-0.00553884
-0.00562093
-0.00573355
-0.0058828
-0.00607783
-0.006333
-0.00667133
-0.00712832
-0.00775575
-0.00858538
-0.00993015
-0.00550924
-0.00548588
-0.00546481
-0.00545108
-0.00545072
-0.00546701
-0.00550302
-0.00556169
-0.00564633
-0.00576108
-0.00591152
-0.00610569
-0.00635537
-0.00667763
-0.00709452
-0.00762884
-0.00824835
-0.00909539
-0.00551313
-0.00549092
-0.00547236
-0.00546154
-0.005464
-0.00548299
-0.0055215
-0.00558237
-0.00566873
-0.00578433
-0.00593399
-0.00612418
-0.00636348
-0.00666253
-0.0070311
-0.00747086
-0.00792878
-0.00845809
-0.00551814
-0.00549639
-0.00547981
-0.00547156
-0.00547656
-0.00549792
-0.0055385
-0.00560098
-0.00568822
-0.00580342
-0.0059504
-0.00613378
-0.0063587
-0.00662976
-0.00694695
-0.00729839
-0.00762941
-0.00794934
-0.00552399
-0.00550215
-0.00548705
-0.00548102
-0.00548823
-0.00551159
-0.00555377
-0.00561724
-0.00570446
-0.00581799
-0.00596049
-0.00613458
-0.00634214
-0.00658261
-0.00684909
-0.00712256
-0.00735512
-0.00753952
-0.00553032
-0.00550797
-0.00549387
-0.0054897
-0.00549875
-0.0055237
-0.00556697
-0.00563073
-0.00571701
-0.00582762
-0.005964
-0.00612685
-0.00631512
-0.00652435
-0.00674347
-0.00695119
-0.00710966
-0.00720935
-0.00553667
-0.00551355
-0.00550004
-0.00549734
-0.00550785
-0.00553393
-0.00557773
-0.00564109
-0.00572553
-0.00583208
-0.005961
-0.00611121
-0.00627937
-0.00645837
-0.00663522
-0.00678965
-0.00689401
-0.0069422
-0.00554248
-0.00551851
-0.00550525
-0.00550368
-0.00551524
-0.00554199
-0.00558576
-0.00564802
-0.00572977
-0.0058313
-0.00595176
-0.00608863
-0.00623686
-0.00638787
-0.0065285
-0.00664119
-0.00670709
-0.00672464
-0.00554712
-0.00552233
-0.00550915
-0.00550838
-0.00552061
-0.00554756
-0.00559074
-0.00565125
-0.0057296
-0.00582536
-0.00593678
-0.00606021
-0.00618954
-0.00631565
-0.00642622
-0.00650707
-0.00654617
-0.00654591
-0.0055497
-0.00552431
-0.00551113
-0.00551085
-0.00552335
-0.00555007
-0.00559222
-0.00565059
-0.00572529
-0.00581534
-0.00591831
-0.00602988
-0.00614342
-0.00624986
-0.00633812
-0.00639689
-0.0064186
-0.00640838
-0.00555
-0.00552486
-0.00551165
-0.00551172
-0.0055243
-0.00555048
-0.00559124
-0.00564709
-0.00571774
-0.0058018
-0.00589634
-0.00599662
-0.00609589
-0.00618559
-0.00625611
-0.0062987
-0.00630897
-0.00629222
-0.00554686
-0.00552288
-0.00550988
-0.00551022
-0.00552262
-0.00554782
-0.00558654
-0.00563902
-0.00570467
-0.00578172
-0.00586692
-0.00595535
-0.00604045
-0.0061145
-0.00616947
-0.00619898
-0.00620079
-0.00617952
-0.00553792
-0.00551629
-0.00550416
-0.00550478
-0.00551672
-0.00554035
-0.00557621
-0.00562436
-0.00568398
-0.00575309
-0.00582833
-0.00590488
-0.00597666
-0.00603689
-0.0060791
-0.0060986
-0.0060942
-0.00606945
-0.00551981
-0.00550222
-0.00549222
-0.00549335
-0.00550449
-0.00552585
-0.00555789
-0.00560057
-0.00565303
-0.00571332
-0.00577819
-0.00584318
-0.00590284
-0.00595137
-0.00598344
-0.0059954
-0.00598611
-0.00595769
-0.00548849
-0.00547724
-0.00547122
-0.00547339
-0.00548342
-0.00550167
-0.00552867
-0.00556448
-0.00560839
-0.00565869
-0.00571251
-0.00576592
-0.00581417
-0.00585225
-0.00587558
-0.00588084
-0.00586636
-0.0058326
-0.00544057
-0.00543828
-0.00543833
-0.00544218
-0.00545066
-0.00546468
-0.00548502
-0.00551199
-0.00554523
-0.00558342
-0.00562426
-0.00566445
-0.00569992
-0.00572628
-0.00573935
-0.00573568
-0.00571282
-0.00566991
-0.00537749
-0.00538594
-0.00539307
-0.00539829
-0.0054038
-0.0054113
-0.00542192
-0.00543635
-0.00545467
-0.0054762
-0.00549933
-0.00552153
-0.00553948
-0.00554938
-0.00554729
-0.00552947
-0.0054924
-0.00543403
-0.00533023
-0.00534716
-0.00535947
-0.00536488
-0.00536651
-0.00536632
-0.00536542
-0.00536456
-0.00536405
-0.00536364
-0.00536237
-0.00535858
-0.00534992
-0.0053336
-0.00530661
-0.00526596
-0.00520829
-0.00513082
-0.00530724
-0.00532834
-0.00534301
-0.00534825
-0.00534741
-0.00534221
-0.00533352
-0.00532187
-0.0053075
-0.00529025
-0.00526945
-0.00524392
-0.00521197
-0.00517153
-0.00512039
-0.00505628
-0.00497647
-0.00487849
-0.00530067
-0.00532315
-0.0053386
-0.00534388
-0.00534193
-0.0053339
-0.00532019
-0.00530102
-0.00527636
-0.00524594
-0.00520916
-0.0051651
-0.0051125
-0.00504992
-0.0049758
-0.00488863
-0.0047865
-0.00466744
-0.00530478
-0.00532682
-0.00534232
-0.00534823
-0.00534657
-0.00533778
-0.00532177
-0.00529838
-0.00526726
-0.00522794
-0.00517973
-0.00512179
-0.00505312
-0.00497266
-0.00487937
-0.00477234
-0.00465051
-0.00451265
-0.00531437
-0.00533511
-0.00535063
-0.00535792
-0.0053578
-0.00534996
-0.00533389
-0.00530906
-0.00527483
-0.00523047
-0.00517514
-0.00510795
-0.005028
-0.00493443
-0.00482652
-0.00470378
-0.00456585
-0.00441227
-0.00532554
-0.00534493
-0.00536095
-0.00537039
-0.00537276
-0.00536711
-0.0053526
-0.00532839
-0.0052936
-0.00524723
-0.00518828
-0.00511574
-0.00502866
-0.00492628
-0.00480803
-0.00467367
-0.00452331
-0.0043572
-0.00533582
-0.00535437
-0.00537166
-0.00538391
-0.00538941
-0.00538674
-0.00537482
-0.00535261
-0.005319
-0.00527281
-0.00521282
-0.00513786
-0.00504691
-0.00493916
-0.00481409
-0.00467157
-0.00451197
-0.0043361
-0.00534384
-0.00536247
-0.00538191
-0.00539747
-0.00540647
-0.00540722
-0.00539849
-0.00537911
-0.00534783
-0.00530326
-0.00524401
-0.00516874
-0.00507627
-0.00496569
-0.00483647
-0.00468848
-0.00452217
-0.00433874
-0.00534898
-0.00536894
-0.00539143
-0.00541072
-0.00542345
-0.00542785
-0.00542265
-0.00540663
-0.0053784
-0.00533645
-0.00527919
-0.00520509
-0.0051128
-0.00500128
-0.00486987
-0.00471839
-0.00454728
-0.00435786
-0.00535116
-0.00537381
-0.00540018
-0.00542344
-0.00543999
-0.00544812
-0.00544661
-0.00543422
-0.00540951
-0.00537083
-0.00531642
-0.00524454
-0.00515366
-0.00504255
-0.0049104
-0.00475694
-0.00458247
-0.00438834
-0.00535112
-0.005377
-0.00540688
-0.00543346
-0.00545312
-0.00546427
-0.00546579
-0.00545645
-0.00543478
-0.00539901
-0.00534726
-0.00527764
-0.00518843
-0.00507824
-0.00494614
-0.00479173
-0.0046152
-0.00441786
0.000269007
0.000291301
0.000299357
0.000279218
0.000229176
0.000150089
4.3315e-05
-8.93201e-05
-0.00024568
-0.000423602
-0.000621012
-0.000836283
-0.00106805
-0.00131527
-0.00157723
-0.0018534
-0.00214336
-0.00244665
-0.00276264
-0.00309037
-0.00342848
-0.00377504
-0.00412746
-0.00448243
-0.00483582
-0.0051827
-0.00551722
-0.00583273
-0.00612173
-0.00637597
-0.00658656
-0.00674413
-0.00683899
-0.00686137
-0.0068017
-0.00665089
-0.00640069
-0.00604395
-0.00557503
-0.00499008
-0.00428729
-0.0034672
-0.00253283
-0.0014898
-0.000346307
0.000887286
0.00219727
0.0035682
0.00498261
0.00642133
0.00786399
0.00928943
0.0106761
0.0120027
0.0132482
0.0143925
0.0154168
0.0163037
0.0170373
0.0176039
0.0179915
0.0181904
0.0181935
0.0179961
0.0175957
0.0169935
0.0161939
0.0152046
0.0140372
0.0127073
0.0112346
0.00964272
0.00795911
0.00621455
0.00444245
0.00267792
0.000956393
-0.000687473
-0.00222057
-0.00361517
-0.00484748
-0.00589985
-0.00676177
-0.0074302
-0.0079094
-0.00821047
-0.00835021
-0.00834979
-0.00823308
-0.008025
-0.00774997
-0.00743057
-0.00708667
-0.00673482
-0.00638817
-0.00605665
-0.00574737
-0.00546523
-0.00521333
-0.00499345
-0.00480611
-0.00465076
-0.00452566
-0.00442806
-0.00435427
-0.00430005
-0.00426086
-0.0042323
-0.00421028
-0.00419126
-0.00417228
-0.00415103
-0.00412578
-0.00409531
-0.00405893
-0.00401631
-0.00396754
-0.00391297
-0.00385322
-0.00378909
-0.0037215
-0.00365142
-0.00357992
-0.00350794
-0.0034364
-0.00336612
-0.00329779
-0.00323197
-0.00316911
-0.00310948
-0.00305328
-0.00300058
-0.00295135
-0.00290547
-0.0028628
-0.00282311
-0.00278616
-0.00275167
-0.00271937
-0.00268898
-0.00266022
-0.00263283
-0.00260655
-0.00258116
-0.00255644
-0.00253219
-0.00250824
-0.00248443
-0.00246063
-0.0024367
-0.00241255
-0.00238809
-0.00236324
-0.00233793
-0.00231212
-0.00228576
-0.00225882
-0.00223128
-0.00220312
-0.00217432
-0.00214487
-0.00211477
-0.002084
-0.00205254
-0.00202036
-0.00198741
-0.00195361
-0.00191883
-0.00188291
-0.00184564
-0.00180678
-0.00176606
-0.00172314
-0.00167781
-0.00162988
-0.00157931
-0.0015262
-0.00147178
-0.00141959
-0.00134941
0.000272757
0.000296541
0.000304918
0.00028535
0.000238563
0.000166548
7.08174e-05
-4.70957e-05
-0.000185524
-0.000342825
-0.000517608
-0.00070859
-0.000914844
-0.00113572
-0.00137082
-0.00161987
-0.00188269
-0.00215903
-0.00244852
-0.00275048
-0.00306384
-0.00338705
-0.00371795
-0.00405368
-0.00439066
-0.00472447
-0.00504986
-0.0053607
-0.00565001
-0.00590997
-0.00613205
-0.0063071
-0.00642552
-0.00647746
-0.00645314
-0.00634305
-0.0061384
-0.00583135
-0.00541545
-0.00488597
-0.00424018
-0.00347771
-0.00260073
-0.00161399
-0.000524609
0.000657061
0.00191859
0.00324468
0.0046179
0.00601919
0.0074282
0.00882368
0.010184
0.0114876
0.0127133
0.0138409
0.0148514
0.0157271
0.0164523
0.017013
0.0173972
0.017595
0.017599
0.0174043
0.0170093
0.0164152
0.0156269
0.0146523
0.0135034
0.012196
0.0107501
0.00918989
0.00754303
0.00584061
0.00411622
0.00240494
0.000742002
-0.000838987
-0.00230325
-0.00362741
-0.00478893
-0.00577201
-0.00656842
-0.00717749
-0.00760578
-0.00786629
-0.00797721
-0.00796035
-0.00783949
-0.00763865
-0.00738073
-0.00708634
-0.00677309
-0.00645532
-0.00614409
-0.00584755
-0.00557138
-0.00531941
-0.00509405
-0.00489666
-0.00472769
-0.00458669
-0.00447229
-0.00438222
-0.00431344
-0.00426233
-0.00422502
-0.00419765
-0.0041766
-0.00415865
-0.00414108
-0.00412168
-0.00409872
-0.00407097
-0.00403764
-0.00399832
-0.00395297
-0.00390184
-0.00384545
-0.0037845
-0.00371986
-0.00365247
-0.00358329
-0.00351329
-0.00344338
-0.00337438
-0.003307
-0.00324184
-0.00317936
-0.00311988
-0.00306363
-0.0030107
-0.0029611
-0.00291477
-0.00287155
-0.00283127
-0.00279369
-0.00275857
-0.00272564
-0.00269463
-0.00266527
-0.0026373
-0.00261049
-0.0025846
-0.00255941
-0.00253474
-0.00251041
-0.00248625
-0.00246213
-0.00243793
-0.00241353
-0.00238885
-0.00236381
-0.00233834
-0.00231239
-0.00228591
-0.00225888
-0.00223125
-0.00220301
-0.00217415
-0.00214466
-0.00211451
-0.00208369
-0.00205218
-0.00201995
-0.00198694
-0.00195307
-0.00191823
-0.00188229
-0.00184502
-0.00180622
-0.00176562
-0.001723
-0.00167812
-0.00163085
-0.00158122
-0.00152944
-0.00147688
-0.00142686
-0.00135979
0.000405099
0.000420197
0.000419307
0.000392449
0.000341583
0.000269276
0.000177205
6.6774e-05
-6.06587e-05
-0.000203844
-0.000361776
-0.000533747
-0.00071936
-0.000918509
-0.00113133
-0.00135812
-0.00159925
-0.00185504
-0.00212568
-0.00241106
-0.00271073
-0.0030237
-0.00334842
-0.00368263
-0.00402327
-0.00436641
-0.00470717
-0.00503967
-0.00535702
-0.00565133
-0.00591377
-0.00613471
-0.00630385
-0.0064105
-0.00644385
-0.00639331
-0.00624889
-0.0060016
-0.00564387
-0.00516994
-0.00457625
-0.00386178
-0.00302815
-0.00207941
-0.00102267
0.000131619
0.00137021
0.00267742
0.00403541
0.00542454
0.00682387
0.00821159
0.00956557
0.0108638
0.0120848
0.0132082
0.0142148
0.0150869
0.015809
0.0163671
0.0167495
0.0169465
0.0169509
0.0167579
0.0163656
0.0157755
0.0149923
0.0140241
0.0128828
0.0115844
0.0101494
0.0086021
0.00697102
0.00528796
0.00358739
0.00190539
0.00027851
-0.00125749
-0.00267391
-0.0039394
-0.00503424
-0.00594459
-0.00666399
-0.00719429
-0.00754519
-0.00773311
-0.00777962
-0.00770945
-0.00754847
-0.00732179
-0.00705221
-0.00675919
-0.00645836
-0.00616154
-0.00587705
-0.00561041
-0.005365
-0.00514277
-0.00494479
-0.00477156
-0.00462311
-0.00449894
-0.00439791
-0.00431817
-0.00425718
-0.00421189
-0.00417898
-0.00415508
-0.00413701
-0.00412187
-0.00410716
-0.00409078
-0.00407108
-0.00404679
-0.00401707
-0.00398144
-0.00393975
-0.00389219
-0.00383918
-0.00378137
-0.00371957
-0.00365469
-0.00358767
-0.00351948
-0.00345104
-0.00338318
-0.00331664
-0.00325203
-0.00318984
-0.00313046
-0.00307411
-0.00302093
-0.00297097
-0.00292417
-0.00288042
-0.00283956
-0.00280138
-0.00276564
-0.00273208
-0.00270046
-0.00267052
-0.00264199
-0.00261464
-0.00258825
-0.0025626
-0.0025375
-0.00251278
-0.00248826
-0.00246382
-0.00243933
-0.00241468
-0.00238977
-0.00236453
-0.00233888
-0.00231278
-0.00228617
-0.00225902
-0.00223129
-0.00220298
-0.00217405
-0.00214449
-0.00211428
-0.00208342
-0.00205186
-0.00201959
-0.00198653
-0.00195263
-0.00191776
-0.00188179
-0.00184456
-0.00180586
-0.00176547
-0.00172318
-0.00167882
-0.00163231
-0.00158373
-0.00153335
-0.0014826
-0.00143507
-0.00136996
0.000676888
0.000670446
0.000647839
0.000604547
0.000542117
0.000462426
0.00036686
0.000256573
0.000132591
-4.30774e-06
-0.000153677
-0.000315438
-0.000489876
-0.000677625
-0.000879606
-0.00109695
-0.00133087
-0.00158258
-0.00185313
-0.0021433
-0.00245342
-0.00278327
-0.00313192
-0.0034976
-0.00387756
-0.00426795
-0.0046637
-0.00505848
-0.00544464
-0.00581324
-0.00615416
-0.00645625
-0.00670754
-0.0068956
-0.00700786
-0.00703207
-0.00695671
-0.0067715
-0.00646784
-0.00603927
-0.00548191
-0.00479463
-0.00397896
-0.00303927
-0.00198397
-0.000824829
0.000423889
0.00174536
0.00312055
0.00452863
0.00594755
0.00735454
0.00872662
0.0100412
0.0112763
0.0124115
0.0134274
0.0143068
0.0150342
0.015596
0.0159811
0.0161801
0.0161861
0.0159947
0.0156037
0.0150141
0.0142305
0.0132606
0.0121159
0.0108126
0.0093708
0.00781538
0.00617534
0.00448344
0.00277548
0.00108913
-0.000537326
-0.00206669
-0.00346469
-0.00470047
-0.00575181
-0.00660419
-0.00725123
-0.00769596
-0.00795066
-0.00803568
-0.00797748
-0.00780622
-0.00755301
-0.00724739
-0.00691519
-0.00657721
-0.00624872
-0.00593971
-0.00565575
-0.00539907
-0.00516982
-0.00496706
-0.00478956
-0.00463619
-0.004506
-0.00439799
-0.00431087
-0.00424291
-0.00419182
-0.00415482
-0.00412891
-0.00411101
-0.0040982
-0.00408783
-0.00407753
-0.00406534
-0.00404964
-0.0040292
-0.00400314
-0.00397094
-0.00393245
-0.00388779
-0.00383738
-0.00378185
-0.003722
-0.00365875
-0.00359307
-0.00352595
-0.00345831
-0.00339102
-0.00332486
-0.00326045
-0.00319832
-0.00313886
-0.00308233
-0.0030289
-0.00297862
-0.00293145
-0.00288729
-0.002846
-0.00280737
-0.00277117
-0.00273717
-0.00270511
-0.00267473
-0.00264579
-0.00261805
-0.00259128
-0.00256529
-0.00253986
-0.00251483
-0.00249004
-0.00246535
-0.00244062
-0.00241576
-0.00239067
-0.00236526
-0.00233946
-0.00231323
-0.0022865
-0.00225925
-0.00223144
-0.00220305
-0.00217406
-0.00214444
-0.00211419
-0.00208328
-0.00205169
-0.00201938
-0.0019863
-0.00195238
-0.00191751
-0.00188158
-0.00184443
-0.00180588
-0.00176573
-0.00172381
-0.00167997
-0.00163418
-0.00158655
-0.00153734
-0.00148795
-0.00144173
-0.00137917
0.00105865
0.0010205
0.000966015
0.000898741
0.000819029
0.000726926
0.000622966
0.000507654
0.000381261
0.000243761
9.4782e-05
-6.64505e-05
-0.000241126
-0.00043083
-0.00063749
-0.000863278
-0.00111049
-0.0013814
-0.00167808
-0.00200225
-0.00235506
-0.00273691
-0.00314723
-0.00358435
-0.00404522
-0.00452536
-0.00501867
-0.00551741
-0.0060122
-0.0064921
-0.00694479
-0.00735684
-0.00771402
-0.00800174
-0.00820548
-0.00831134
-0.00830647
-0.00817967
-0.0079218
-0.00752629
-0.00698945
-0.00631054
-0.00549167
-0.00453912
-0.0034631
-0.00227643
-0.000994857
0.000363197
0.00177712
0.00322459
0.0046822
0.00612599
0.00753204
0.00887702
0.0101387
0.0112962
0.0123306
0.0132249
0.0139639
0.014535
0.0149273
0.0151321
0.0151426
0.0149547
0.0145662
0.0139777
0.0131932
0.0122201
0.0110693
0.00975645
0.0083015
0.00672927
0.00506917
0.00335477
0.00162311
-8.63593e-05
-0.0017332
-0.00327758
-0.00468209
-0.00591277
-0.00694333
-0.007756
-0.00834263
-0.00870535
-0.00885714
-0.00882103
-0.00862824
-0.00831538
-0.00792112
-0.00748259
-0.00703233
-0.00659598
-0.0061913
-0.00582834
-0.0055107
-0.00523727
-0.0050042
-0.00480659
-0.00463978
-0.00449993
-0.00438423
-0.00429053
-0.00421687
-0.00416123
-0.00412125
-0.00409421
-0.00407717
-0.00406719
-0.00406147
-0.00405745
-0.00405291
-0.00404591
-0.00403489
-0.00401863
-0.00399627
-0.0039673
-0.00393155
-0.00388918
-0.00384062
-0.00378654
-0.00372779
-0.00366532
-0.00360017
-0.00353335
-0.00346584
-0.00339856
-0.00333229
-0.0032677
-0.00320534
-0.0031456
-0.00308878
-0.00303504
-0.00298443
-0.00293693
-0.00289245
-0.00285083
-0.00281187
-0.00277536
-0.00274104
-0.00270867
-0.002678
-0.00264878
-0.00262076
-0.00259374
-0.00256749
-0.00254183
-0.00251658
-0.00249159
-0.0024667
-0.0024418
-0.00241678
-0.00239154
-0.00236599
-0.00234008
-0.00231373
-0.00228691
-0.00225957
-0.00223169
-0.00220323
-0.00217418
-0.00214451
-0.00211421
-0.00208326
-0.00205164
-0.0020193
-0.00198621
-0.0019523
-0.00191747
-0.00188161
-0.00184458
-0.00180622
-0.00176637
-0.00172486
-0.00168158
-0.00163649
-0.00158973
-0.00154154
-0.00149317
-0.00144741
-0.00138828
0.00151227
0.00143603
0.00134405
0.00124886
0.00114852
0.00104091
0.000925001
0.000800027
0.000665061
0.000518911
0.000360069
0.000186641
-3.68896e-06
-0.000213655
-0.000446347
-0.000705104
-0.000993358
-0.00131444
-0.00167138
-0.0020666
-0.00250173
-0.0029773
-0.00349249
-0.0040449
-0.00463036
-0.00524276
-0.00587401
-0.00651405
-0.00715093
-0.00777105
-0.00835941
-0.00890003
-0.00937636
-0.00977179
-0.0100702
-0.0102564
-0.0103168
-0.0102398
-0.0100162
-0.00963998
-0.00910782
-0.00841979
-0.00758011
-0.00659692
-0.00548145
-0.00424819
-0.00291472
-0.0015013
-3.0356e-05
0.00147408
0.00298699
0.00448307
0.00593728
0.0073255
0.00862501
0.00981491
0.0108764
0.0117928
0.0125499
0.0131355
0.0135398
0.0137547
0.0137737
0.013593
0.0132103
0.0126259
0.0118432
0.0108689
0.00971327
0.00839111
0.00692197
0.00533045
0.00364611
0.00190313
0.000139618
-0.00160339
-0.00328328
-0.00485755
-0.00628561
-0.00753065
-0.00856123
-0.0093548
-0.00989935
-0.0101941
-0.0102504
-0.0100915
-0.00975137
-0.00927229
-0.00870086
-0.0080838
-0.00746348
-0.00687426
-0.00634024
-0.00587479
-0.00548166
-0.00515736
-0.004894
-0.00468194
-0.00451191
-0.00437618
-0.00426892
-0.0041859
-0.00412386
-0.0040799
-0.00405121
-0.00403484
-0.00402773
-0.00402687
-0.00402943
-0.00403289
-0.004035
-0.00403387
-0.00402795
-0.00401602
-0.00399725
-0.00397116
-0.00393762
-0.00389684
-0.00384934
-0.00379586
-0.00373733
-0.00367479
-0.00360935
-0.00354208
-0.00347405
-0.00340618
-0.00333933
-0.00327417
-0.00321128
-0.00315106
-0.0030938
-0.00303966
-0.00298871
-0.0029409
-0.00289615
-0.00285428
-0.0028151
-0.00277837
-0.00274386
-0.0027113
-0.00268045
-0.00265105
-0.00262287
-0.00259568
-0.00256928
-0.00254347
-0.00251807
-0.00249293
-0.00246791
-0.00244288
-0.00241774
-0.00239238
-0.00236673
-0.00234072
-0.00231429
-0.00228738
-0.00225997
-0.00223202
-0.0022035
-0.00217439
-0.00214467
-0.00211433
-0.00208335
-0.0020517
-0.00201935
-0.00198626
-0.00195237
-0.0019176
-0.00188184
-0.00184498
-0.00180687
-0.00176736
-0.0017263
-0.0016836
-0.00163923
-0.0015933
-0.00154604
-0.00149849
-0.00145274
-0.00139761
0.00199015
0.00187395
0.00174144
0.00161668
0.00149485
0.00137017
0.00123944
0.00110015
0.000949719
0.000785422
0.000604312
0.000403137
0.000178278
-7.42601e-05
-0.000358776
-0.000679738
-0.00104158
-0.00144844
-0.00190387
-0.00241053
-0.00296984
-0.00358165
-0.004244
-0.00495285
-0.00570193
-0.00648268
-0.00728426
-0.00809371
-0.00889615
-0.00967516
-0.0104131
-0.0110918
-0.0116926
-0.0121975
-0.0125891
-0.0128516
-0.012971
-0.0129358
-0.012737
-0.0123691
-0.0118296
-0.0111203
-0.0102468
-0.00921835
-0.00804793
-0.00675183
-0.00534961
-0.00386355
-0.00231813
-0.000739362
0.0008459
0.00241069
0.00392864
0.00537462
0.00672529
0.00795952
0.00905869
0.0100067
0.0107901
0.0113976
0.0118202
0.0120509
0.0120839
0.0119153
0.0115431
0.0109672
0.0101905
0.00921867
0.00806132
0.00673236
0.00525074
0.00364071
0.00193183
0.000158744
-0.00163954
-0.00342057
-0.00513984
-0.00675235
-0.0082145
-0.00948606
-0.0105316
-0.0113243
-0.0118461
-0.0120919
-0.0120693
-0.0117994
-0.0113161
-0.0106648
-0.0098986
-0.00907354
-0.00824337
-0.00745419
-0.00674037
-0.0061226
-0.00560822
-0.00519363
-0.00486791
-0.00461664
-0.00442516
-0.00428068
-0.00417313
-0.00409512
-0.00404119
-0.00400692
-0.00398856
-0.00398259
-0.00398557
-0.00399423
-0.0040056
-0.00401702
-0.0040262
-0.00403117
-0.00403037
-0.00402259
-0.00400701
-0.00398321
-0.00395115
-0.00391114
-0.00386378
-0.00380996
-0.00375072
-0.00368721
-0.00362064
-0.00355217
-0.00348294
-0.00341393
-0.00334602
-0.00327992
-0.00321621
-0.0031553
-0.00309747
-0.00304287
-0.00299155
-0.00294345
-0.00289847
-0.00285643
-0.00281712
-0.00278029
-0.00274569
-0.00271306
-0.00268213
-0.00265267
-0.00262442
-0.00259716
-0.00257068
-0.00254479
-0.00251931
-0.00249409
-0.00246899
-0.00244388
-0.00241865
-0.00239321
-0.00236748
-0.00234139
-0.00231489
-0.00228792
-0.00226044
-0.00223243
-0.00220385
-0.0021747
-0.00214494
-0.00211456
-0.00208354
-0.00205187
-0.00201952
-0.00198644
-0.00195259
-0.0019179
-0.00188228
-0.00184562
-0.00180779
-0.00176867
-0.00172811
-0.00168601
-0.00164236
-0.00159723
-0.00155083
-0.00150395
-0.00145795
-0.00140703
0.00243414
0.00227813
0.00210713
0.00195431
0.00181144
0.00166879
0.00152045
0.00136169
0.00118792
0.000994574
0.000777054
0.000530603
0.000250223
-6.93295e-05
-0.00043345
-0.000847506
-0.00131657
-0.00184509
-0.00243654
-0.00309302
-0.0038149
-0.0046005
-0.00544581
-0.00634437
-0.00728714
-0.0082626
-0.00925688
-0.010254
-0.0112364
-0.0121851
-0.0130803
-0.0139018
-0.0146297
-0.0152448
-0.015729
-0.016066
-0.0162416
-0.0162444
-0.0160656
-0.0157
-0.0151463
-0.0144074
-0.01349
-0.0124047
-0.011166
-0.00979226
-0.00830513
-0.00672917
-0.00509115
-0.00341941
-0.00174299
-9.08555e-05
0.00150891
0.00302987
0.0044478
0.0057412
0.00689147
0.00788307
0.0087033
0.00934204
0.0097914
0.0100453
0.0100989
0.00994878
0.00959297
0.00903126
0.00826554
0.007301
0.00614625
0.00481435
0.00332358
0.00169779
-3.34811e-05
-0.00183524
-0.00366764
-0.005487
-0.00724706
-0.00890059
-0.0104013
-0.0117057
-0.0127751
-0.0135782
-0.014092
-0.0143058
-0.0142227
-0.0138595
-0.013248
-0.0124335
-0.0114727
-0.010429
-0.00936685
-0.00834526
-0.00741161
-0.0065977
-0.00591839
-0.00537332
-0.0049507
-0.00463228
-0.0043979
-0.0042289
-0.00410993
-0.00402927
-0.0039783
-0.00395039
-0.00394024
-0.00394335
-0.00395564
-0.0039734
-0.00399333
-0.00401254
-0.00402857
-0.00403935
-0.00404325
-0.00403904
-0.00402595
-0.00400362
-0.00397211
-0.00393187
-0.00388367
-0.00382851
-0.0037676
-0.00370223
-0.00363372
-0.00356335
-0.0034923
-0.00342163
-0.00335224
-0.00328488
-0.00322011
-0.00315834
-0.00309984
-0.00304473
-0.00299304
-0.00294469
-0.00289955
-0.00285741
-0.00281806
-0.00278122
-0.00274664
-0.00271404
-0.00268314
-0.0026537
-0.00262547
-0.00259823
-0.00257175
-0.00254585
-0.00252035
-0.00249511
-0.00246997
-0.00244481
-0.00241954
-0.00239405
-0.00236826
-0.00234212
-0.00231556
-0.00228853
-0.002261
-0.00223293
-0.00220431
-0.0021751
-0.0021453
-0.00211488
-0.00208384
-0.00205216
-0.0020198
-0.00198675
-0.00195296
-0.00191836
-0.0018829
-0.00184647
-0.00180896
-0.00177025
-0.00173021
-0.00168875
-0.0016458
-0.00160144
-0.00155583
-0.00150949
-0.00146309
-0.00141627
0.00278305
0.00259137
0.00238568
0.00220755
0.00204478
0.00188334
0.00171421
0.00153016
0.00132434
0.0010902
0.000821372
0.00051158
0.000154502
-0.000256197
-0.000726738
-0.00126299
-0.00187014
-0.00255232
-0.00331216
-0.00415043
-0.0050657
-0.00605398
-0.00710866
-0.00822038
-0.00937708
-0.0105643
-0.0117652
-0.0129613
-0.0141325
-0.0152578
-0.0163158
-0.0172848
-0.0181438
-0.0188725
-0.0194524
-0.0198663
-0.0201
-0.0201415
-0.0199823
-0.0196172
-0.019046
-0.018272
-0.0173029
-0.0161505
-0.0148313
-0.0133655
-0.0117771
-0.0100932
-0.00834313
-0.00655796
-0.00476934
-0.00300868
-0.0013062
0.000309923
0.00181425
0.00318459
0.00440224
0.00545207
0.00632224
0.00700378
0.00749008
0.00777627
0.00785872
0.00773454
0.007402
0.00686072
0.00611204
0.00516031
0.00401332
0.00268327
0.00118776
-0.000449743
-0.00219973
-0.00402683
-0.00589044
-0.00774569
-0.00954471
-0.0112383
-0.0127776
-0.0141164
-0.0152126
-0.0160314
-0.016546
-0.0167401
-0.0166117
-0.0161731
-0.0154519
-0.0144914
-0.0133486
-0.0120916
-0.0107931
-0.00952399
-0.00834565
-0.00730345
-0.00642333
-0.00571174
-0.00515908
-0.00474514
-0.00444502
-0.00423402
-0.00409075
-0.00399822
-0.00394369
-0.00391756
-0.00391241
-0.00392227
-0.00394219
-0.00396778
-0.00399525
-0.00402137
-0.00404343
-0.00405919
-0.0040669
-0.00406533
-0.00405372
-0.00403181
-0.00399978
-0.00395825
-0.00390815
-0.00385067
-0.00378719
-0.00371914
-0.00364798
-0.00357508
-0.00350171
-0.00342897
-0.00335779
-0.00328893
-0.00322294
-0.00316021
-0.00310099
-0.00304536
-0.00299333
-0.00294478
-0.00289955
-0.00285741
-0.00281811
-0.00278137
-0.0027469
-0.00271442
-0.00268365
-0.00265432
-0.00262619
-0.00259902
-0.00257261
-0.00254676
-0.00252129
-0.00249606
-0.00247092
-0.00244575
-0.00242045
-0.00239493
-0.00236911
-0.00234292
-0.00231631
-0.00228924
-0.00226166
-0.00223354
-0.00220487
-0.00217561
-0.00214577
-0.00211532
-0.00208425
-0.00205255
-0.0020202
-0.00198718
-0.00195345
-0.00191898
-0.00188369
-0.0018475
-0.00181033
-0.00177205
-0.00173255
-0.0016917
-0.00164945
-0.0016058
-0.00156089
-0.00151499
-0.0014681
-0.00142502
0.00297554
0.00275489
0.00252083
0.00232135
0.0021402
0.00195901
0.00176561
0.00155012
0.00130341
0.00101691
0.000682546
0.000292617
-0.000160334
-0.000683458
-0.00128342
-0.0019661
-0.00273623
-0.00359696
-0.00454947
-0.00559258
-0.00672248
-0.00793253
-0.00921327
-0.0105524
-0.011935
-0.013344
-0.01476
-0.0161623
-0.0175291
-0.0188376
-0.0200648
-0.021188
-0.0221849
-0.0230343
-0.0237165
-0.0242137
-0.0245108
-0.0245954
-0.0244584
-0.0240948
-0.0235047
-0.0226917
-0.0216643
-0.0204359
-0.0190244
-0.0174524
-0.0157462
-0.0139356
-0.012053
-0.0101326
-0.00820899
-0.00631657
-0.00448817
-0.00275417
-0.00114171
0.00032598
0.00162983
0.00275495
0.00369032
0.00442818
0.00496335
0.00529242
0.00541302
0.00532327
0.00502172
0.00450798
0.00378303
0.00285034
0.00171694
0.000394252
-0.00110077
-0.00274499
-0.00450888
-0.00635671
-0.00824709
-0.010134
-0.0119682
-0.0136984
-0.0152737
-0.0166452
-0.0177679
-0.0186035
-0.0191229
-0.0193043
-0.0191413
-0.0186416
-0.0178284
-0.0167414
-0.0154359
-0.0139814
-0.0124561
-0.0109405
-0.00950878
-0.00822069
-0.00711547
-0.00620962
-0.00549889
-0.00496366
-0.00457582
-0.00430515
-0.00412397
-0.00400942
-0.00394383
-0.00391395
-0.00390964
-0.00392313
-0.00394818
-0.00397956
-0.00401285
-0.00404438
-0.00407108
-0.00409049
-0.00410075
-0.00410055
-0.00408919
-0.00406649
-0.0040328
-0.00398889
-0.00393589
-0.0038752
-0.00380835
-0.00373695
-0.00366257
-0.00358668
-0.00351063
-0.00343555
-0.0033624
-0.00329191
-0.00322464
-0.00316094
-0.00310102
-0.00304493
-0.00299263
-0.00294397
-0.00289874
-0.0028567
-0.00281754
-0.00278098
-0.00274672
-0.00271444
-0.00268386
-0.00265472
-0.00262675
-0.00259972
-0.00257342
-0.00254765
-0.00252225
-0.00249706
-0.00247194
-0.00244678
-0.00242147
-0.00239593
-0.00237008
-0.00234385
-0.0023172
-0.00229007
-0.00226244
-0.00223427
-0.00220555
-0.00217625
-0.00214636
-0.00211587
-0.00208478
-0.00205306
-0.00202072
-0.00198773
-0.00195408
-0.00191972
-0.00188461
-0.00184868
-0.00181185
-0.001774
-0.00173501
-0.00169476
-0.00165316
-0.00161014
-0.00156583
-0.0015203
-0.00147288
-0.001433
0.00295858
0.00271779
0.00246343
0.00224733
0.00204946
0.00184755
0.00162642
0.00137371
0.00107806
0.000729059
0.000317093
-0.000166765
-0.000730831
-0.00138273
-0.00212914
-0.00297551
-0.00392559
-0.0049811
-0.0061413
-0.00740273
-0.00875902
-0.0102009
-0.011716
-0.0132896
-0.0149042
-0.0165404
-0.0181769
-0.0197913
-0.02136
-0.0228587
-0.0242632
-0.0255491
-0.026693
-0.0276722
-0.0284657
-0.0290545
-0.0294223
-0.0295558
-0.0294452
-0.0290852
-0.028476
-0.0276212
-0.0265301
-0.0252175
-0.023703
-0.0220113
-0.0201713
-0.0182158
-0.0161804
-0.0141027
-0.0120208
-0.00997256
-0.00799386
-0.00611787
-0.00437388
-0.00278663
-0.00137593
-0.000156671
0.000860822
0.00167004
0.00226734
0.00265096
0.00282002
0.00277386
0.00251166
0.00203315
0.00133909
0.000432162
-0.000681295
-0.00199053
-0.00347915
-0.00512431
-0.00689642
-0.00875933
-0.0106709
-0.0125841
-0.0144482
-0.0162102
-0.0178172
-0.0192178
-0.0203647
-0.0212162
-0.0217405
-0.021913
-0.0217222
-0.0211722
-0.0202819
-0.0190868
-0.0176398
-0.0160092
-0.014276
-0.0125272
-0.0108478
-0.00931082
-0.00796957
-0.00685262
-0.00596382
-0.00528684
-0.00479236
-0.00444583
-0.00421365
-0.00406682
-0.00398231
-0.00394259
-0.00393439
-0.00394774
-0.00397482
-0.00400937
-0.00404622
-0.00408112
-0.00411063
-0.00413201
-0.00414324
-0.00414295
-0.00413048
-0.00410574
-0.00406924
-0.00402195
-0.00396518
-0.00390052
-0.0038297
-0.00375446
-0.00367649
-0.00359736
-0.00351845
-0.00344094
-0.00336578
-0.0032937
-0.0032252
-0.00316062
-0.0031001
-0.00304366
-0.0029912
-0.00294254
-0.00289743
-0.00285557
-0.00281666
-0.00278038
-0.00274639
-0.00271438
-0.00268406
-0.00265515
-0.00262738
-0.00260052
-0.00257436
-0.0025487
-0.00252338
-0.00249824
-0.00247315
-0.002448
-0.00242268
-0.00239712
-0.00237123
-0.00234496
-0.00231825
-0.00229107
-0.00226338
-0.00223516
-0.00220637
-0.00217702
-0.00214708
-0.00211655
-0.00208542
-0.00205369
-0.00202135
-0.00198839
-0.00195481
-0.00192057
-0.00188564
-0.00184996
-0.00181345
-0.00177601
-0.0017375