/*--------------------------------*- C++ -*----------------------------------*\
  =========                 |
  \\      /  F ield         | OpenFOAM: The Open Source CFD Toolbox
   \\    /   O peration     | Website:  https://openfoam.org
    \\  /    A nd           | Version:  8
     \\/     M anipulation  |
\*---------------------------------------------------------------------------*/
FoamFile
{
    version     2.0;
    format      ascii;
    class       surfaceScalarField;
    location    "0.64";
    object      phi;
}
// * * * * * * * * * * * * * * * * * * * * * * * * * * * * * * * * * * * * * //

dimensions      [0 3 -1 0 0 0 0];

internalField   nonuniform List<scalar> 
24170
(
-2.58116e-12
2.58116e-12
5.13671e-12
-7.71787e-12
2.21694e-11
-1.70327e-11
4.69075e-11
-2.4738e-11
7.81943e-11
-3.12869e-11
1.15363e-10
-3.71683e-11
1.58035e-10
-4.26727e-11
2.06062e-10
-4.80271e-11
2.59531e-10
-5.34688e-11
3.18842e-10
-5.93111e-11
3.84821e-10
-6.59787e-11
4.58829e-10
-7.40076e-11
5.42774e-10
-8.39457e-11
6.38495e-10
-9.57202e-11
7.43358e-10
-1.04864e-10
8.23791e-10
-8.04332e-11
7.57829e-10
6.59623e-11
1.89023e-09
-1.1324e-09
-2.55691e-12
5.13807e-12
2.36117e-11
-3.38865e-11
7.81319e-11
-7.15529e-11
1.56279e-10
-1.02885e-10
2.54709e-10
-1.29717e-10
3.71242e-10
-1.53701e-10
5.04511e-10
-1.75941e-10
6.53727e-10
-1.97243e-10
8.1865e-10
-2.18392e-10
9.99653e-10
-2.40314e-10
1.19772e-09
-2.64047e-10
1.4141e-09
-2.90385e-10
1.64877e-09
-3.1862e-10
1.89529e-09
-3.4224e-10
2.12294e-09
-3.32509e-10
2.21704e-09
-1.74535e-10
1.72881e-09
5.54186e-10
4.22497e-09
-6.05925e-10
2.2858e-12
2.85226e-12
5.2174e-11
-8.37747e-11
1.50385e-10
-1.69764e-10
2.8945e-10
-2.4195e-10
4.6379e-10
-3.04057e-10
6.69458e-10
-3.5937e-10
9.03728e-10
-4.10211e-10
1.16466e-09
-4.5818e-10
1.45096e-09
-5.0469e-10
1.76179e-09
-5.51138e-10
2.09628e-09
-5.98543e-10
2.452e-09
-6.461e-10
2.82045e-09
-6.87073e-10
3.17527e-09
-6.97063e-10
3.44052e-09
-5.97757e-10
3.40889e-09
-1.42905e-10
2.52243e-09
1.44065e-09
6.63807e-09
1.09327e-10
1.17899e-11
-8.93761e-12
9.16472e-11
-1.63632e-10
2.40294e-10
-3.18411e-10
4.48009e-10
-4.49665e-10
7.06918e-10
-5.62965e-10
1.01105e-09
-6.63503e-10
1.35586e-09
-7.55021e-10
1.7376e-09
-8.39915e-10
2.15288e-09
-9.19973e-10
2.59812e-09
-9.96378e-10
3.06814e-09
-1.06856e-09
3.55284e-09
-1.1308e-09
4.02927e-09
-1.16351e-09
4.4438e-09
-1.1116e-09
4.67346e-09
-8.2742e-10
4.4545e-09
7.60632e-11
3.29792e-09
2.59722e-09
8.98988e-09
9.46112e-10
2.60979e-11
-3.50355e-11
1.42593e-10
-2.80127e-10
3.48763e-10
-5.24581e-10
6.32796e-10
-7.33697e-10
9.84456e-10
-9.14626e-10
1.39546e-09
-1.07451e-09
1.8589e-09
-1.21846e-09
2.36837e-09
-1.34939e-09
2.91722e-09
-1.46882e-09
3.49729e-09
-1.57645e-09
4.09648e-09
-1.66776e-09
4.6935e-09
-1.72781e-09
5.24706e-09
-1.71707e-09
5.6753e-09
-1.53983e-09
5.82078e-09
-9.72902e-10
5.4118e-09
4.85048e-10
4.09848e-09
3.91054e-09
1.11748e-08
1.91361e-09
4.50536e-11
-8.00891e-11
2.05096e-10
-4.40169e-10
4.75891e-10
-7.95377e-10
8.43457e-10
-1.10126e-09
1.29509e-09
-1.36626e-09
1.81986e-09
-1.59928e-09
2.40787e-09
-1.80647e-09
3.04916e-09
-1.99068e-09
3.73244e-09
-2.1521e-09
4.44318e-09
-2.28719e-09
5.16004e-09
-2.38462e-09
5.84812e-09
-2.41589e-09
6.44701e-09
-2.31596e-09
6.85172e-09
-1.94455e-09
6.89013e-09
-1.0113e-09
6.32217e-09
1.053e-09
4.94924e-09
5.28347e-09
1.31334e-08
2.9906e-09
6.83047e-11
-1.48394e-10
2.78595e-10
-6.5046e-10
6.20679e-10
-1.13746e-09
1.07803e-09
-1.55862e-09
1.63529e-09
-1.92351e-09
2.27852e-09
-2.24251e-09
2.9942e-09
-2.52216e-09
3.76785e-09
-2.76432e-09
4.58224e-09
-2.96649e-09
5.41488e-09
-3.11983e-09
6.2336e-09
-3.20333e-09
6.98927e-09
-3.17156e-09
7.60475e-09
-2.93144e-09
7.96143e-09
-2.30124e-09
7.89304e-09
-9.42907e-10
7.21635e-09
1.72969e-09
5.86764e-09
6.63218e-09
1.4829e-08
4.17207e-09
9.52249e-11
-2.43619e-10
3.6171e-10
-9.16945e-10
7.80692e-10
-1.55644e-09
1.33245e-09
-2.11038e-09
1.9987e-09
-2.58976e-09
2.76213e-09
-3.00594e-09
3.60499e-09
-3.36503e-09
4.5074e-09
-3.66673e-09
5.44515e-09
-3.90424e-09
6.3867e-09
-4.06139e-09
7.28861e-09
-4.10524e-09
8.08883e-09
-3.97178e-09
8.69865e-09
-3.54126e-09
8.99732e-09
-2.59991e-09
8.84159e-09
-7.87182e-10
8.11603e-09
2.45525e-09
6.86333e-09
7.88489e-09
1.62369e-08
5.45533e-09
1.2487e-10
-3.68489e-10
4.5206e-10
-1.24413e-09
9.51701e-10
-2.05608e-09
1.60003e-09
-2.7587e-09
2.37547e-09
-3.3652e-09
3.25705e-09
-3.88751e-09
4.2223e-09
-4.33028e-09
5.2453e-09
-4.68973e-09
6.29424e-09
-4.95318e-09
7.32832e-09
-5.09547e-09
8.29364e-09
-5.07057e-09
9.11837e-09
-4.79651e-09
9.70915e-09
-4.13203e-09
9.9542e-09
-2.84495e-09
9.74493e-09
-5.7792e-10
9.03316e-09
3.16702e-09
7.93723e-09
8.98082e-09
1.73383e-08
6.83585e-09
1.55926e-10
-5.24415e-10
5.46092e-10
-1.6343e-09
1.12732e-09
-2.63731e-09
1.87088e-09
-3.50226e-09
2.7516e-09
-4.24593e-09
3.74459e-09
-4.8805e-09
4.82244e-09
-5.40813e-09
5.953e-09
-5.82028e-09
7.09687e-09
-6.09705e-09
8.20471e-09
-6.20332e-09
9.21435e-09
-6.0802e-09
1.00486e-08
-5.6308e-09
1.06169e-08
-4.70031e-09
1.08255e-08
-3.0535e-09
1.06058e-08
-3.58243e-10
9.96883e-09
3.80396e-09
9.08104e-09
9.86862e-09
1.81156e-08
8.30381e-09
1.86849e-10
-7.11264e-10
6.38942e-10
-2.08639e-09
1.29866e-09
-3.29703e-09
2.13144e-09
-4.33504e-09
3.10825e-09
-5.22274e-09
4.20027e-09
-5.97252e-09
5.37533e-09
-6.58318e-09
6.59535e-09
-7.04031e-09
7.81421e-09
-7.31591e-09
8.97577e-09
-7.36488e-09
1.00128e-08
-7.11722e-09
1.08479e-08
-6.46595e-09
1.13999e-08
-5.2523e-09
1.1599e-08
-3.25254e-09
1.14168e-08
-1.76024e-10
1.09115e-08
4.30927e-09
1.02754e-08
1.05047e-08
1.85505e-08
9.84043e-09
1.80672e-10
-8.91936e-10
6.05727e-10
-2.51145e-09
1.21715e-09
-3.90845e-09
1.98037e-09
-5.09826e-09
2.86774e-09
-6.11012e-09
3.8522e-09
-6.95698e-09
4.90336e-09
-7.63433e-09
5.9853e-09
-8.12225e-09
7.05513e-09
-8.38574e-09
8.06221e-09
-8.37196e-09
8.94883e-09
-8.00383e-09
9.65338e-09
-7.17051e-09
1.01183e-08
-5.71721e-09
1.0305e-08
-3.43921e-09
1.02174e-08
-8.84441e-11
9.93115e-09
4.5955e-09
9.61594e-09
1.08199e-08
1.86397e-08
9.52678e-09
2.27756e-10
-1.11969e-09
7.57389e-10
-3.04108e-09
1.50812e-09
-4.65918e-09
2.43546e-09
-6.02561e-09
3.50479e-09
-7.17944e-09
4.68252e-09
-8.13471e-09
5.93111e-09
-8.88292e-09
7.20648e-09
-9.39762e-09
8.45687e-09
-9.63613e-09
9.62318e-09
-9.53828e-09
1.06414e-08
-9.02209e-09
1.14488e-08
-7.97786e-09
1.19945e-08
-6.26295e-09
1.22574e-08
-3.70211e-09
1.22687e-08
-9.9753e-11
1.21354e-08
4.7288e-09
1.20512e-08
1.09041e-08
1.84157e-08
1.22752e-08
2.77191e-10
-1.39688e-09
9.16308e-10
-3.6802e-09
1.80968e-09
-5.55255e-09
2.9012e-09
-7.11713e-09
4.14897e-09
-8.42721e-09
5.51302e-09
-9.49875e-09
6.94916e-09
-1.03191e-08
8.40621e-09
-1.08547e-08
9.82544e-09
-1.10554e-08
1.11424e-08
-1.08552e-08
1.22916e-08
-1.01713e-08
1.32155e-08
-8.90177e-09
1.38777e-08
-6.9251e-09
1.42807e-08
-4.10516e-09
1.44861e-08
-3.05159e-10
1.46293e-08
4.58565e-09
1.49191e-08
1.06143e-08
1.77242e-08
1.56106e-08
3.18481e-10
-1.71536e-09
1.04704e-09
-4.40876e-09
2.05298e-09
-6.55849e-09
3.26888e-09
-8.33303e-09
4.64718e-09
-9.80552e-09
6.14384e-09
-1.09954e-08
7.71124e-09
-1.18865e-08
9.29525e-09
-1.24387e-08
1.08356e-08
-1.25957e-08
1.2269e-08
-1.22887e-08
1.35367e-08
-1.1439e-08
1.45945e-08
-9.95949e-09
1.54271e-08
-7.75771e-09
1.60645e-08
-4.74263e-09
1.65963e-08
-8.36914e-10
1.71778e-08
4.00415e-09
1.80217e-08
9.77042e-09
1.63766e-08
1.93693e-08
3.2948e-10
-2.04484e-09
1.0771e-09
-5.15638e-09
2.09823e-09
-7.57962e-09
3.32052e-09
-9.55531e-09
4.69656e-09
-1.11816e-08
6.1848e-09
-1.24837e-08
7.74187e-09
-1.34435e-08
9.31985e-09
-1.40167e-08
1.08672e-08
-1.4143e-08
1.23333e-08
-1.37548e-08
1.36762e-08
-1.27819e-08
1.48738e-08
-1.11571e-08
1.59368e-08
-8.82064e-09
1.69206e-08
-5.72643e-09
1.79342e-08
-1.85058e-09
1.91399e-08
2.79846e-09
2.07402e-08
8.1701e-09
1.41646e-08
2.29523e-08
2.70791e-10
-2.31564e-09
8.78181e-10
-5.76377e-09
1.69895e-09
-8.40039e-09
2.67376e-09
-1.05301e-08
3.76845e-09
-1.22762e-08
4.95676e-09
-1.3672e-08
6.21356e-09
-1.47003e-08
7.51246e-09
-1.53156e-08
8.82678e-09
-1.54573e-08
1.01337e-08
-1.50617e-08
1.14214e-08
-1.40696e-08
1.26979e-08
-1.24336e-08
1.40005e-08
-1.01233e-08
1.54039e-08
-7.12987e-09
1.70235e-08
-3.47009e-09
1.90113e-08
8.10663e-10
2.15443e-08
5.6371e-09
1.09051e-08
2.48038e-08
8.25282e-11
-2.39816e-09
2.58394e-10
-5.93963e-09
4.88643e-10
-8.63064e-09
7.60524e-10
-1.0802e-08
1.07479e-09
-1.25905e-08
1.43951e-09
-1.40367e-08
1.86712e-09
-1.5128e-08
2.37303e-09
-1.58215e-08
2.97588e-09
-1.60602e-08
3.69958e-09
-1.57854e-08
4.57721e-09
-1.49473e-08
5.65586e-09
-1.35122e-08
7.00141e-09
-1.14688e-08
8.70165e-09
-8.83011e-09
1.08663e-08
-5.63473e-09
1.36225e-08
-1.9455e-09
1.71061e-08
2.15346e-09
6.56109e-09
2.14501e-08
-3.00818e-10
-2.09735e-09
-9.79616e-10
-5.26083e-09
-1.9048e-09
-7.70545e-09
-3.00163e-09
-9.70518e-09
-4.21106e-09
-1.13811e-08
-5.47267e-09
-1.27751e-08
-6.71889e-09
-1.38817e-08
-7.87388e-09
-1.46665e-08
-8.85422e-09
-1.50798e-08
-9.57e-09
-1.50696e-08
-9.9259e-09
-1.45914e-08
-9.82197e-09
-1.36162e-08
-9.15464e-09
-1.21361e-08
-7.81809e-09
-1.01667e-08
-5.7069e-09
-7.74592e-09
-2.71997e-09
-4.93243e-09
1.23435e-09
-1.80086e-09
1.56287e-09
6.23258e-09
-4.41222e-10
-1.65612e-09
-1.4377e-09
-4.26435e-09
-2.80276e-09
-6.34039e-09
-4.44082e-09
-8.06712e-09
-6.28565e-09
-9.53624e-09
-8.27482e-09
-1.07859e-08
-1.03399e-08
-1.18167e-08
-1.24031e-08
-1.26033e-08
-1.43776e-08
-1.31053e-08
-1.61694e-08
-1.32779e-08
-1.76801e-08
-1.30806e-08
-1.88111e-08
-1.24852e-08
-1.94668e-08
-1.14804e-08
-1.95587e-08
-1.00748e-08
-1.90083e-08
-8.29631e-09
-1.77503e-08
-6.19051e-09
-1.57343e-08
-3.81682e-09
-1.24404e-09
-1.29274e-08
-4.68424e-10
-1.1877e-09
-1.53521e-09
-3.19757e-09
-3.01285e-09
-4.86275e-09
-4.80909e-09
-6.27088e-09
-6.86222e-09
-7.48311e-09
-9.1157e-09
-8.53243e-09
-1.15079e-08
-9.42445e-09
-1.39681e-08
-1.01431e-08
-1.64153e-08
-1.06581e-08
-1.87603e-08
-1.0933e-08
-2.09079e-08
-1.0933e-08
-2.27617e-08
-1.06314e-08
-2.42279e-08
-1.00142e-08
-2.52202e-08
-9.08247e-09
-2.56633e-08
-7.85319e-09
-2.54963e-08
-6.35749e-09
-2.46749e-08
-4.6383e-09
-2.74721e-09
-2.31717e-08
-4.11799e-10
-7.75901e-10
-1.36808e-09
-2.24129e-09
-2.71651e-09
-3.51432e-09
-4.38231e-09
-4.60507e-09
-6.31496e-09
-5.55047e-09
-8.46885e-09
-6.37854e-09
-1.07949e-08
-7.09843e-09
-1.32362e-08
-7.70177e-09
-1.57267e-08
-8.16755e-09
-1.81915e-08
-8.46818e-09
-2.05489e-08
-8.57558e-09
-2.2714e-08
-8.46638e-09
-2.46022e-08
-8.1259e-09
-2.61342e-08
-7.55046e-09
-2.72393e-08
-6.74809e-09
-2.78589e-08
-5.73788e-09
-2.79489e-08
-4.54833e-09
-3.21566e-09
-2.74805e-08
-3.19207e-10
-4.56694e-10
-1.08643e-09
-1.47407e-09
-2.19667e-09
-2.40407e-09
-3.59483e-09
-3.20691e-09
-5.24143e-09
-3.90387e-09
-7.10143e-09
-4.51854e-09
-9.13815e-09
-5.0617e-09
-1.13095e-08
-5.53045e-09
-1.35657e-08
-5.9113e-09
-1.58493e-08
-6.18462e-09
-1.80956e-08
-6.32922e-09
-2.02357e-08
-6.32633e-09
-2.21989e-08
-6.16264e-09
-2.39171e-08
-5.83229e-09
-2.53275e-08
-5.33769e-09
-2.63762e-08
-4.68923e-09
-2.70201e-08
-3.90435e-09
-3.00681e-09
-2.7229e-08
-2.22204e-10
-2.3449e-10
-7.88726e-10
-9.07549e-10
-1.63848e-09
-1.55432e-09
-2.73239e-09
-2.113e-09
-4.03975e-09
-2.59651e-09
-5.53404e-09
-3.02424e-09
-7.18896e-09
-3.40679e-09
-8.97501e-09
-3.7444e-09
-1.08572e-08
-4.02907e-09
-1.27942e-08
-4.2477e-09
-1.4738e-08
-4.38535e-09
-1.66363e-08
-4.4281e-09
-1.84337e-08
-4.36523e-09
-2.00752e-08
-4.19077e-09
-2.15087e-08
-3.90417e-09
-2.26876e-08
-3.51035e-09
-2.35729e-08
-3.01909e-09
-2.4448e-09
-2.41349e-08
-1.37935e-10
-9.65547e-11
-5.27386e-10
-5.18098e-10
-1.14037e-09
-9.41337e-10
-1.94884e-09
-1.30454e-09
-2.92861e-09
-1.61673e-09
-4.05983e-09
-1.89303e-09
-5.3242e-09
-2.14242e-09
-6.70212e-09
-2.36648e-09
-8.17034e-09
-2.56084e-09
-9.70069e-09
-2.71735e-09
-1.12598e-08
-2.82624e-09
-1.28099e-08
-2.878e-09
-1.43102e-08
-2.86493e-09
-1.57189e-08
-2.78206e-09
-1.69953e-08
-2.6278e-09
-1.81016e-08
-2.404e-09
-1.90051e-08
-2.11564e-09
-1.7706e-09
-1.96793e-08
-7.34418e-11
-2.31129e-11
-3.22958e-10
-2.68582e-10
-7.41165e-10
-5.2313e-10
-1.30702e-09
-7.38684e-10
-2.00154e-09
-9.22212e-10
-2.81012e-09
-1.08445e-09
-3.72057e-09
-1.23198e-09
-4.72053e-09
-1.36652e-09
-5.79546e-09
-1.48591e-09
-6.92731e-09
-1.58551e-09
-8.09406e-09
-1.65948e-09
-9.27006e-09
-1.702e-09
-1.04269e-08
-1.70809e-09
-1.15347e-08
-1.6743e-09
-1.25634e-08
-1.59902e-09
-1.34848e-08
-1.48265e-09
-1.4273e-08
-1.32743e-09
-1.13713e-09
-1.49065e-08
-2.96775e-11
6.5646e-12
-1.77239e-10
-1.2102e-10
-4.45046e-10
-2.55323e-10
-8.16818e-10
-3.66912e-10
-1.27818e-09
-4.60854e-10
-1.81889e-09
-5.43736e-10
-2.43126e-09
-6.19607e-10
-3.10806e-09
-6.89713e-10
-3.84084e-09
-7.53128e-10
-4.61883e-09
-8.0752e-10
-5.42845e-09
-8.49865e-10
-6.2534e-09
-8.77048e-10
-7.07517e-09
-8.86328e-10
-7.87379e-09
-8.75675e-10
-8.62884e-09
-8.43971e-10
-9.32039e-09
-7.91096e-10
-9.92993e-09
-7.1789e-10
-6.25824e-10
-1.04412e-08
-4.50819e-12
1.10728e-11
-8.27e-11
-4.28285e-11
-2.39352e-10
-9.86713e-11
-4.62178e-10
-1.44086e-10
-7.41189e-10
-1.81843e-10
-1.06984e-09
-2.15087e-10
-1.44373e-09
-2.45719e-10
-1.85906e-09
-2.74376e-10
-2.31145e-09
-3.00745e-10
-2.79507e-09
-3.239e-10
-3.30233e-09
-3.42602e-10
-3.82383e-09
-3.55547e-10
-4.3486e-09
-3.61555e-10
-4.86456e-09
-3.59712e-10
-5.35908e-09
-3.49454e-10
-5.81957e-09
-3.30607e-10
-6.23408e-09
-3.03379e-10
-2.68177e-10
-6.59173e-09
6.02247e-12
5.0503e-12
-2.83959e-11
-8.41016e-12
-1.05508e-10
-2.15591e-11
-2.17595e-10
-3.19989e-11
-3.58894e-10
-4.05448e-11
-5.25926e-10
-4.80551e-11
-7.16614e-10
-5.50302e-11
-9.29344e-10
-6.16466e-11
-1.16224e-09
-6.7846e-11
-1.41272e-09
-7.34195e-11
-1.67725e-09
-7.80787e-11
-1.95128e-09
-8.15136e-11
-2.2294e-09
-8.34366e-11
-2.50549e-09
-8.36159e-11
-2.77305e-09
-8.18946e-11
-3.02546e-09
-7.82014e-11
-3.2563e-09
-7.25339e-11
-6.49465e-11
-3.45953e-09
5.0503e-12
-3.35986e-12
-2.4919e-11
-5.69179e-11
-9.74627e-11
-1.45518e-10
-2.00548e-10
-2.62195e-10
-3.30041e-10
-4.0346e-10
-4.81539e-10
-5.63052e-10
-6.46489e-10
-7.30105e-10
-8.11999e-10
-8.90201e-10
-9.62735e-10
-1.02768e-09
8.50097e-11
-8.50096e-11
3.06796e-10
-2.21786e-10
6.17067e-10
-3.10271e-10
9.66368e-10
-3.49302e-10
1.31346e-09
-3.4709e-10
1.62579e-09
-3.12333e-10
1.87885e-09
-2.53058e-10
2.05512e-09
-1.76267e-10
2.14288e-09
-8.77618e-11
2.13467e-09
8.20515e-12
2.02694e-09
1.07738e-10
1.81774e-09
2.09193e-10
1.50663e-09
3.11113e-10
1.09358e-09
4.13049e-10
5.78419e-10
5.15162e-10
-3.96019e-11
6.18021e-10
-7.62067e-10
7.22465e-10
-1.59144e-09
8.29368e-10
-2.53088e-09
9.39444e-10
-3.58407e-09
1.05319e-09
-4.7548e-09
1.17074e-09
-6.04661e-09
1.29181e-09
-7.46225e-09
1.41564e-09
-9.00328e-09
1.54103e-09
-1.06696e-08
1.66627e-09
-1.24588e-08
1.78927e-09
-1.43663e-08
1.90752e-09
-1.63846e-08
2.01822e-09
-1.85028e-08
2.11825e-09
-2.07072e-08
2.20436e-09
-2.29803e-08
2.27314e-09
-2.53015e-08
2.32122e-09
-2.76468e-08
2.3453e-09
-2.99891e-08
2.3423e-09
-3.22986e-08
2.30949e-09
-3.45432e-08
2.24458e-09
-3.6689e-08
2.14586e-09
-3.87013e-08
2.01227e-09
-4.05448e-08
1.84351e-09
-4.21849e-08
1.64009e-09
-4.35882e-08
1.40333e-09
-4.47236e-08
1.13537e-09
-4.55628e-08
8.39157e-10
-4.60811e-08
5.1836e-10
-4.6259e-08
1.77816e-10
-4.60785e-08
-1.80472e-10
-4.55305e-08
-5.4796e-10
-4.46103e-08
-9.20229e-10
-4.33182e-08
-1.2921e-09
-4.166e-08
-1.65817e-09
-3.96465e-08
-2.01348e-09
-3.7293e-08
-2.35351e-09
-3.46187e-08
-2.67429e-09
-3.16463e-08
-2.97249e-09
-2.84009e-08
-3.24539e-09
-2.491e-08
-3.49089e-09
-2.12025e-08
-3.70743e-09
-1.73087e-08
-3.89389e-09
-1.32592e-08
-4.04943e-09
-9.08589e-09
-4.17334e-09
-4.82112e-09
-4.26477e-09
-4.98837e-10
-4.32229e-09
3.84657e-09
-4.34541e-09
8.17905e-09
-4.33248e-09
1.24595e-08
-4.28042e-09
1.66468e-08
-4.1873e-09
2.06976e-08
-4.05078e-09
2.45659e-08
-3.86839e-09
2.82038e-08
-3.63789e-09
3.15615e-08
-3.3577e-09
3.45888e-08
-3.02723e-09
3.7236e-08
-2.64726e-09
3.94563e-08
-2.22029e-09
4.12071e-08
-1.75081e-09
4.24527e-08
-1.24555e-09
4.31664e-08
-7.13711e-10
4.33317e-08
-1.65293e-10
4.29454e-08
3.86314e-10
4.20235e-08
9.21852e-10
4.05918e-08
1.43173e-09
3.86929e-08
1.89888e-09
3.63843e-08
2.30855e-09
3.37362e-08
2.64814e-09
3.08285e-08
2.90772e-09
2.77475e-08
3.08099e-09
2.45816e-08
3.16589e-09
2.14168e-08
3.16484e-09
1.83322e-08
3.08458e-09
1.53966e-08
2.93565e-09
1.26652e-08
2.73136e-09
1.01785e-08
2.48669e-09
7.96161e-09
2.21688e-09
6.02537e-09
1.93624e-09
4.36822e-09
1.65715e-09
2.97876e-09
1.38946e-09
1.83833e-09
1.14043e-09
9.23239e-10
9.15087e-10
2.06447e-10
7.16793e-10
-3.41448e-10
5.47895e-10
-7.51344e-10
4.09896e-10
-1.05467e-09
3.03323e-10
-1.28209e-09
2.27425e-10
-1.46189e-09
1.798e-10
-1.61824e-09
1.56347e-10
-1.76991e-09
1.51668e-10
-1.92965e-09
1.59741e-10
-2.10435e-09
1.74703e-10
-2.29584e-09
1.91491e-10
-2.50206e-09
2.06222e-10
-2.71835e-09
2.16286e-10
-2.93859e-09
2.20235e-10
-3.15614e-09
2.17553e-10
-3.36455e-09
2.08409e-10
-3.55798e-09
1.93432e-10
-3.73152e-09
1.73537e-10
-3.88131e-09
1.49793e-10
-4.00464e-09
1.23333e-10
-4.09993e-09
9.52849e-11
-4.16664e-09
6.67176e-11
-4.20525e-09
3.86027e-11
-4.21709e-09
1.18414e-11
-4.204e-09
-1.3094e-11
-4.16864e-09
-3.5355e-11
-4.11385e-09
-5.47919e-11
-4.04271e-09
-7.11402e-11
-3.95837e-09
-8.43352e-11
-3.86394e-09
-9.4436e-11
-3.76234e-09
-1.01601e-10
-3.65627e-09
-1.06066e-10
-3.54815e-09
-1.0812e-10
-3.44007e-09
-1.08079e-10
-3.33379e-09
-1.06276e-10
-3.23076e-09
-1.03036e-10
-3.13209e-09
-9.86704e-11
-3.03862e-09
-9.34651e-11
-2.95095e-09
-8.76757e-11
-2.86942e-09
-8.15245e-11
-2.79422e-09
-7.52006e-11
-2.72536e-09
-6.88595e-11
-2.66274e-09
-6.26265e-11
-2.60614e-09
-5.65988e-11
-2.55529e-09
-5.08492e-11
-2.50986e-09
-4.54294e-11
-2.46949e-09
-4.03734e-11
-2.43378e-09
-3.57006e-11
-2.40237e-09
-3.14189e-11
-2.37484e-09
-2.7527e-11
-2.35082e-09
-2.40166e-11
-2.32995e-09
-2.08741e-11
-2.31187e-09
-1.8082e-11
-2.29625e-09
-1.56201e-11
-2.28278e-09
-1.34666e-11
-2.27118e-09
-1.15987e-11
-2.26119e-09
-9.99271e-12
-2.25256e-09
-8.62497e-12
-2.24509e-09
-7.47165e-12
-2.23858e-09
-6.50899e-12
-2.23287e-09
-5.71136e-12
-2.22782e-09
-5.05272e-12
-2.22331e-09
-4.50485e-12
-2.21928e-09
-4.03604e-12
-2.21567e-09
-3.61022e-12
-2.21248e-09
-3.18736e-12
-2.20975e-09
-2.72512e-12
-2.20757e-09
-2.18419e-12
-2.20603e-09
-1.53797e-12
-2.20527e-09
-7.66107e-13
-2.20535e-09
8.72617e-14
-2.20624e-09
8.82419e-13
-2.20767e-09
1.43723e-12
-2.20918e-09
1.50354e-12
-2.20988e-09
7.08088e-13
-2.20828e-09
-1.60212e-12
-2.20237e-09
-5.91222e-12
-2.18936e-09
-1.30077e-11
-2.16538e-09
-2.39874e-11
-2.12443e-09
-4.09441e-11
-2.05597e-09
-6.84575e-11
-1.94529e-09
-1.1068e-10
-2.46119e-10
-1.69917e-09
1.72666e-10
-2.57675e-10
5.55598e-10
-6.04719e-10
1.04414e-09
-7.98814e-10
1.55266e-09
-8.57824e-10
2.00893e-09
-8.03356e-10
2.35378e-09
-6.57187e-10
2.54021e-09
-4.39481e-10
2.53196e-09
-1.68018e-10
2.30194e-09
1.4226e-10
1.83081e-09
4.79331e-10
1.10455e-09
8.33998e-10
1.13935e-10
1.19981e-09
-1.14761e-09
1.57266e-09
-2.68501e-09
1.95044e-09
-4.50243e-09
2.33258e-09
-6.60393e-09
2.71953e-09
-8.99375e-09
3.11228e-09
-1.16762e-08
3.51181e-09
-1.46554e-08
3.91862e-09
-1.79345e-08
4.3323e-09
-2.15151e-08
4.75131e-09
-2.53959e-08
5.1727e-09
-2.95724e-08
5.59207e-09
-3.40349e-08
6.00357e-09
-3.87687e-08
6.40001e-09
-4.37524e-08
6.773e-09
-4.89581e-08
7.11322e-09
-5.43505e-08
7.41063e-09
-5.98871e-08
7.65483e-09
-6.55181e-08
7.83536e-09
-7.1187e-08
7.94205e-09
-7.68312e-08
7.96543e-09
-8.23829e-08
7.89704e-09
-8.77705e-08
7.72981e-09
-9.29194e-08
7.45838e-09
-9.77541e-08
7.07934e-09
-1.022e-07
6.59146e-09
-1.06183e-07
5.99582e-09
-1.09636e-07
5.29586e-09
-1.12493e-07
4.49734e-09
-1.14698e-07
3.60824e-09
-1.16201e-07
2.63854e-09
-1.16962e-07
1.59993e-09
-1.16949e-07
5.05932e-10
-1.16142e-07
-6.29926e-10
-1.1453e-07
-1.79202e-09
-1.12114e-07
-2.96401e-09
-1.08903e-07
-4.13089e-09
-1.04917e-07
-5.27818e-09
-1.00183e-07
-6.39229e-09
-9.47357e-08
-7.46092e-09
-8.86159e-08
-8.47328e-09
-8.18699e-08
-9.42025e-09
-7.4548e-08
-1.02944e-08
-6.67032e-08
-1.10902e-08
-5.83907e-08
-1.18033e-08
-4.9667e-08
-1.24312e-08
-4.05891e-08
-1.29718e-08
-3.12145e-08
-1.3424e-08
-2.16012e-08
-1.37867e-08
-1.18077e-08
-1.40582e-08
-1.89375e-09
-1.42363e-08
8.07735e-09
-1.43165e-08
1.80384e-08
-1.42936e-08
2.79197e-08
-1.41617e-08
3.76463e-08
-1.39139e-08
4.71376e-08
-1.35421e-08
5.63068e-08
-1.30376e-08
6.50607e-08
-1.23918e-08
7.33003e-08
-1.15973e-08
8.09219e-08
-1.06488e-08
8.78186e-08
-9.54399e-09
9.38831e-08
-8.28475e-09
9.90104e-08
-6.87814e-09
1.03102e-07
-5.33717e-09
1.0607e-07
-3.68161e-09
1.07843e-07
-1.93876e-09
1.08361e-07
-1.31185e-10
1.07613e-07
1.66951e-09
1.05598e-07
3.44672e-09
1.02358e-07
5.1389e-09
9.79707e-08
6.69615e-09
9.25498e-08
8.06898e-09
8.62449e-08
9.2126e-09
7.92352e-08
1.00907e-08
7.17225e-08
1.06786e-08
6.3921e-08
1.09663e-08
5.60461e-08
1.09595e-08
4.83021e-08
1.06796e-08
4.08714e-08
1.01621e-08
3.39051e-08
9.45294e-09
2.75177e-08
8.60429e-09
2.17846e-08
7.66942e-09
1.67435e-08
6.69825e-09
1.23989e-08
5.73404e-09
8.72764e-09
4.81168e-09
5.68499e-09
3.95774e-09
3.21012e-09
3.19166e-09
1.2308e-09
2.52721e-09
-3.32633e-10
1.97333e-09
-1.56335e-09
1.53404e-09
-2.54335e-09
1.20743e-09
-3.34876e-09
9.85212e-10
-4.04545e-09
8.53038e-10
-4.68574e-09
7.91951e-10
-5.30679e-09
7.80791e-10
-5.93092e-09
7.98836e-10
-6.56742e-09
8.27997e-10
-7.21534e-09
8.54135e-10
-7.86652e-09
8.67468e-10
-8.50856e-09
8.6227e-10
-9.12717e-09
8.36168e-10
-9.70808e-09
7.89315e-10
-1.02383e-08
7.23621e-10
-1.07068e-08
6.42112e-10
-1.11055e-08
5.48446e-10
-1.14287e-08
4.46543e-10
-1.16737e-08
3.40319e-10
-1.18405e-08
2.33474e-10
-1.19312e-08
1.29346e-10
-1.19502e-08
3.08221e-11
-1.19034e-08
-5.98881e-11
-1.17979e-08
-1.40911e-10
-1.16415e-08
-2.11159e-10
-1.14426e-08
-2.70014e-10
-1.12096e-08
-3.17343e-10
-1.09506e-08
-3.53441e-10
-1.06733e-08
-3.78936e-10
-1.03846e-08
-3.9471e-10
-1.00909e-08
-4.01818e-10
-9.7976e-09
-4.01413e-10
-9.5092e-09
-3.9468e-10
-9.22945e-09
-3.82786e-10
-8.96128e-09
-3.66839e-10
-8.70689e-09
-3.47857e-10
-8.46781e-09
-3.26751e-10
-8.24502e-09
-3.04317e-10
-8.03899e-09
-2.81228e-10
-7.84981e-09
-2.58046e-10
-7.67721e-09
-2.3522e-10
-7.52071e-09
-2.13106e-10
-7.37959e-09
-1.91968e-10
-7.25302e-09
-1.71999e-10
-7.14006e-09
-1.53328e-10
-7.03973e-09
-1.3603e-10
-6.95101e-09
-1.20141e-10
-6.87288e-09
-1.0566e-10
-6.80433e-09
-9.25632e-11
-6.7444e-09
-8.08053e-11
-6.69216e-09
-7.03271e-11
-6.64672e-09
-6.10591e-11
-6.60726e-09
-5.29247e-11
-6.57301e-09
-4.58427e-11
-6.54328e-09
-3.97298e-11
-6.5174e-09
-3.45007e-11
-6.4948e-09
-3.00695e-11
-6.47496e-09
-2.63488e-11
-6.45743e-09
-2.32483e-11
-6.44181e-09
-2.06732e-11
-6.42779e-09
-1.85211e-11
-6.41515e-09
-1.66784e-11
-6.40374e-09
-1.50177e-11
-6.39353e-09
-1.34004e-11
-6.38457e-09
-1.16834e-11
-6.37701e-09
-9.73857e-12
-6.37107e-09
-7.48571e-12
-6.3669e-09
-4.93633e-12
-6.36453e-09
-2.28206e-12
-6.36374e-09
9.4334e-14
-6.36368e-09
1.38138e-12
-6.3628e-09
6.19648e-13
-6.35835e-09
-3.74028e-12
-6.34642e-09
-1.35314e-11
-6.32136e-09
-3.09774e-11
-6.27557e-09
-5.87936e-11
-6.19896e-09
-1.00599e-10
-6.07744e-09
-1.6246e-10
-5.89079e-09
-2.55109e-10
-5.60327e-09
-3.982e-10
-6.84703e-10
-5.16469e-09
1.55407e-10
-4.13082e-10
4.66457e-10
-9.15768e-10
8.11819e-10
-1.14418e-09
1.09547e-09
-1.14148e-09
1.2389e-09
-9.46786e-10
1.17777e-09
-5.96053e-10
8.5974e-10
-1.21453e-10
2.42747e-10
4.48975e-10
-7.06629e-10
1.09164e-09
-2.01459e-09
1.78729e-09
-3.70154e-09
2.52095e-09
-5.78326e-09
3.28153e-09
-8.27205e-09
4.06145e-09
-1.11776e-08
4.85598e-09
-1.45075e-08
5.66253e-09
-1.82678e-08
6.47983e-09
-2.24626e-08
7.30701e-09
-2.70936e-08
8.14282e-09
-3.21597e-08
8.98477e-09
-3.76559e-08
9.82851e-09
-4.3572e-08
1.06674e-08
-4.98916e-08
1.14922e-08
-5.65907e-08
1.22912e-08
-6.36373e-08
1.30501e-08
-7.099e-08
1.37527e-08
-7.85981e-08
1.43812e-08
-8.64015e-08
1.49166e-08
-9.43305e-08
1.53397e-08
-1.02307e-07
1.56318e-08
-1.10247e-07
1.57749e-08
-1.18058e-07
1.57531e-08
-1.25645e-07
1.55528e-08
-1.32912e-07
1.51631e-08
-1.39759e-07
1.45769e-08
-1.46091e-07
1.37908e-08
-1.51817e-07
1.28051e-08
-1.5685e-07
1.16246e-08
-1.61112e-07
1.02578e-08
-1.64533e-07
8.7172e-09
-1.67055e-07
7.01871e-09
-1.68628e-07
5.18136e-09
-1.69216e-07
3.22672e-09
-1.68795e-07
1.17851e-09
-1.67351e-07
-9.37714e-10
-1.64885e-07
-3.0956e-09
-1.61409e-07
-5.2684e-09
-1.56942e-07
-7.43051e-09
-1.51516e-07
-9.5575e-09
-1.45167e-07
-1.16266e-08
-1.37943e-07
-1.36169e-08
-1.29893e-07
-1.55103e-08
-1.21075e-07
-1.72912e-08
-1.11549e-07
-1.89468e-08
-1.01376e-07
-2.04674e-08
-9.062e-08
-2.1846e-08
-7.93454e-08
-2.30779e-08
-6.76158e-08
-2.41607e-08
-5.54944e-08
-2.50933e-08
-4.30433e-08
-2.5875e-08
-3.03245e-08
-2.65055e-08
-1.73994e-08
-2.69833e-08
-4.33034e-09
-2.73053e-08
8.81816e-09
-2.7465e-08
2.19775e-08
-2.7453e-08
3.50746e-08
-2.72587e-08
4.80304e-08
-2.68698e-08
6.0759e-08
-2.62707e-08
7.31659e-08
-2.54445e-08
8.51478e-08
-2.43737e-08
9.65923e-08
-2.30419e-08
1.07379e-07
-2.14351e-08
1.17378e-07
-1.95437e-08
1.26457e-07
-1.73635e-08
1.34477e-07
-1.48985e-08
1.41302e-07
-1.21614e-08
1.46796e-07
-9.17609e-09
1.50835e-07
-5.97785e-09
1.53318e-07
-2.61438e-09
1.54142e-07
8.45987e-10
1.53257e-07
4.33129e-09
1.50645e-07
7.75143e-09
1.46331e-07
1.10102e-08
1.40392e-07
1.40075e-08
1.3296e-07
1.66447e-08
1.2422e-07
1.88308e-08
1.14408e-07
2.04911e-08
1.038e-07
2.1574e-08
9.27019e-08
2.20575e-08
8.14285e-08
2.1953e-08
7.02855e-08
2.1305e-08
5.95506e-08
2.01878e-08
4.94574e-08
1.86975e-08
4.01844e-08
1.69424e-08
3.18507e-08
1.50319e-08
2.45168e-08
1.30679e-08
1.81906e-08
1.11379e-08
1.28359e-08
9.31251e-09
8.38144e-09
7.64609e-09
4.73043e-09
6.17822e-09
1.76855e-09
4.93521e-09
-6.27673e-10
3.93026e-09
-2.58264e-09
3.16239e-09
-4.2133e-09
2.61588e-09
-5.62194e-09
2.26167e-09
-6.89105e-09
2.06106e-09
-8.08089e-09
1.97064e-09
-9.22976e-09
1.94771e-09
-1.03565e-08
1.95477e-09
-1.14646e-08
1.96225e-09
-1.25465e-08
1.94937e-09
-1.35879e-08
1.90365e-09
-1.45713e-08
1.81957e-09
-1.54789e-08
1.69689e-09
-1.62944e-08
1.53912e-09
-1.70045e-08
1.35219e-09
-1.75994e-08
1.14337e-09
-1.80734e-08
9.20529e-10
-1.84246e-08
6.9149e-10
-1.86547e-08
4.63623e-10
-1.87689e-08
2.4351e-10
-1.87748e-08
3.6736e-11
-1.86824e-08
-1.52294e-10
-1.8503e-08
-3.20286e-10
-1.8249e-08
-4.65165e-10
-1.79331e-08
-5.8593e-10
-1.75679e-08
-6.82544e-10
-1.71656e-08
-7.55784e-10
-1.67374e-08
-8.07075e-10
-1.62938e-08
-8.38326e-10
-1.58439e-08
-8.51766e-10
-1.53955e-08
-8.49796e-10
-1.49553e-08
-8.34869e-10
-1.45287e-08
-8.09387e-10
-1.41199e-08
-7.75617e-10
-1.37321e-08
-7.35643e-10
-1.33675e-08
-6.91327e-10
-1.30276e-08
-6.44291e-10
-1.27129e-08
-5.95917e-10
-1.24236e-08
-5.47349e-10
-1.21593e-08
-4.99512e-10
-1.19193e-08
-4.53135e-10
-1.17025e-08
-4.08767e-10
-1.15076e-08
-3.66807e-10
-1.13335e-08
-3.27525e-10
-1.11784e-08
-2.91083e-10
-1.1041e-08
-2.57558e-10
-1.09197e-08
-2.26957e-10
-1.0813e-08
-1.99234e-10
-1.07195e-08
-1.74302e-10
-1.06378e-08
-1.52041e-10
-1.05666e-08
-1.32313e-10
-1.05045e-08
-1.14962e-10
-1.04505e-08
-9.98222e-11
-1.04035e-08
-8.67225e-11
-1.03626e-08
-7.54876e-11
-1.03267e-08
-6.59399e-11
-1.02951e-08
-5.78984e-11
-1.02672e-08
-5.11766e-11
-1.02423e-08
-4.55787e-11
-1.02199e-08
-4.08937e-11
-1.01997e-08
-3.68897e-11
-1.01814e-08
-3.33112e-11
-1.01649e-08
-2.98833e-11
-1.01503e-08
-2.63298e-11
-1.01376e-08
-2.24144e-11
-1.01271e-08
-1.80091e-11
-1.01188e-08
-1.31974e-11
-1.01127e-08
-8.40937e-12
-1.01081e-08
-4.54628e-12
-1.01035e-08
-3.18984e-12
-1.00963e-08
-6.57117e-12
-1.00823e-08
-1.77663e-11
-1.00552e-08
-4.056e-11
-1.00067e-08
-7.94851e-11
-9.92562e-09
-1.39919e-10
-9.79756e-09
-2.28656e-10
-9.6043e-09
-3.55714e-10
-9.32194e-09
-5.37468e-10
-8.91695e-09
-8.03199e-10
-1.20965e-09
-8.392e-09
6.64971e-11
-4.7958e-10
1.3646e-10
-9.85732e-10
1.04392e-10
-1.11211e-09
-1.14015e-10
-9.23071e-10
-5.8706e-10
-4.73741e-10
-1.37084e-09
1.87732e-10
-2.5117e-09
1.0194e-09
-4.04819e-09
1.98547e-09
-6.01241e-09
3.05585e-09
-8.43112e-09
4.206e-09
-1.13265e-08
5.41638e-09
-1.4717e-08
6.67195e-09
-1.8617e-08
7.96152e-09
-2.30379e-08
9.27685e-09
-2.79871e-08
1.06117e-08
-3.34681e-08
1.19609e-08
-3.94799e-08
1.33187e-08
-4.60156e-08
1.46785e-08
-5.30619e-08
1.60311e-08
-6.05976e-08
1.73643e-08
-6.85927e-08
1.86624e-08
-7.70069e-08
1.99065e-08
-8.57898e-08
2.10741e-08
-9.48796e-08
2.214e-08
-1.04204e-07
2.30772e-08
-1.13681e-07
2.38576e-08
-1.23217e-07
2.44532e-08
-1.32715e-07
2.48373e-08
-1.42068e-07
2.49851e-08
-1.51168e-07
2.48753e-08
-1.59906e-07
2.44907e-08
-1.68172e-07
2.38186e-08
-1.75861e-07
2.2852e-08
-1.82873e-07
2.15893e-08
-1.89117e-07
2.00343e-08
-1.94509e-07
1.8197e-08
-1.98976e-07
1.60921e-08
-2.02458e-07
1.37397e-08
-2.04905e-07
1.11641e-08
-2.06279e-07
8.3932e-09
-2.06556e-07
5.45827e-09
-2.05722e-07
2.39288e-09
-2.03777e-07
-7.6719e-10
-2.00729e-07
-3.98566e-09
-1.96598e-07
-7.22615e-09
-1.91413e-07
-1.04537e-08
-1.85209e-07
-1.36346e-08
-1.78029e-07
-1.67372e-08
-1.69924e-07
-1.97322e-08
-1.60947e-07
-2.25934e-08
-1.51159e-07
-2.52985e-08
-1.40622e-07
-2.78286e-08
-1.29399e-07
-3.01691e-08
-1.17557e-07
-3.23094e-08
-1.05161e-07
-3.42426e-08
-9.22734e-08
-3.59653e-08
-7.89576e-08
-3.74765e-08
-6.52734e-08
-3.87775e-08
-5.12787e-08
-3.98697e-08
-3.70294e-08
-4.07548e-08
-2.25805e-08
-4.14323e-08
-7.98652e-09
-4.18993e-08
6.69754e-09
-4.21491e-08
2.1414e-08
-4.21695e-08
3.60996e-08
-4.19442e-08
5.06844e-08
-4.14546e-08
6.50913e-08
-4.06776e-08
7.92339e-08
-3.95871e-08
9.3016e-08
-3.81557e-08
1.06331e-07
-3.63565e-08
1.1906e-07
-3.41648e-08
1.31077e-07
-3.15606e-08
1.42244e-07
-2.85307e-08
1.52417e-07
-2.50713e-08
1.61445e-07
-2.11896e-08
1.69176e-07
-1.69065e-08
1.75456e-07
-1.22585e-08
1.80142e-07
-7.29956e-09
1.83091e-07
-2.10307e-09
1.84186e-07
3.2361e-09
1.83335e-07
8.60187e-09
1.80487e-07
1.38583e-08
1.75638e-07
1.88567e-08
1.68843e-07
2.34397e-08
1.60224e-07
2.745e-08
1.49973e-07
3.07418e-08
1.38353e-07
3.3194e-08
1.25687e-07
3.47233e-08
1.12345e-07
3.52956e-08
9.87173e-08
3.49325e-08
8.5193e-08
3.37121e-08
7.2129e-08
3.17615e-08
5.98283e-08
2.92431e-08
4.85227e-08
2.63376e-08
3.83656e-08
2.32251e-08
2.94324e-08
2.0071e-08
2.17286e-08
1.70163e-08
1.52006e-08
1.41741e-08
9.74909e-09
1.16297e-08
5.24258e-09