/*--------------------------------*- C++ -*----------------------------------*\
  =========                 |
  \\      /  F ield         | OpenFOAM: The Open Source CFD Toolbox
   \\    /   O peration     | Website:  https://openfoam.org
    \\  /    A nd           | Version:  8
     \\/     M anipulation  |
\*---------------------------------------------------------------------------*/
FoamFile
{
    version     2.0;
    format      ascii;
    class       volVectorField;
    location    "0.64";
    object      U;
}
// * * * * * * * * * * * * * * * * * * * * * * * * * * * * * * * * * * * * * //

dimensions      [0 1 -1 0 0 0 0];

internalField   nonuniform List<vector> 
12225
(
(-9.05733e-06 1.22757e-06 0)
(-4.03407e-06 -7.13878e-07 0)
(3.62343e-05 -1.82102e-06 0)
(0.000102344 -2.83733e-06 0)
(0.00019069 -3.7561e-06 0)
(0.000298255 -4.6741e-06 0)
(0.000423545 -5.62614e-06 0)
(0.000565734 -6.65596e-06 0)
(0.000724709 -7.81845e-06 0)
(0.0009012 -9.20562e-06 0)
(0.00109712 -1.0974e-05 0)
(0.00131601 -1.33913e-05 0)
(0.00156356 -1.69375e-05 0)
(0.00184739 -2.24021e-05 0)
(0.00217438 -2.98832e-05 0)
(0.00254429 -3.19304e-05 0)
(0.00287908 -5.219e-05 0)
(0.00062609 0.00162557 0)
(-1.84647e-05 3.10108e-06 0)
(7.57184e-06 -1.09606e-05 0)
(0.000129447 -2.51662e-05 0)
(0.000325285 -3.80023e-05 0)
(0.000585074 -5.00455e-05 0)
(0.000900308 -6.18959e-05 0)
(0.00126618 -7.39773e-05 0)
(0.00167956 -8.66615e-05 0)
(0.00213895 -0.0001004 0)
(0.00264454 -0.000115851 0)
(0.00319851 -0.000133967 0)
(0.00380482 -0.000156001 0)
(0.00446767 -0.000183193 0)
(0.00518422 -0.000214895 0)
(0.00592301 -0.000238687 0)
(0.00654675 -0.000179072 0)
(0.00664635 0.000300908 0)
(0.00225577 0.00399585 0)
(-2.1283e-05 3.52783e-06 0)
(3.72605e-05 -3.49135e-05 0)
(0.000244776 -7.58921e-05 0)
(0.00057141 -0.00011337 0)
(0.00100159 -0.000148761 0)
(0.00152168 -0.000183473 0)
(0.00212314 -0.000218588 0)
(0.0027997 -0.000254982 0)
(0.00354704 -0.000293636 0)
(0.00436243 -0.000335818 0)
(0.00524423 -0.000383019 0)
(0.00618976 -0.000436266 0)
(0.00718904 -0.000493617 0)
(0.00820658 -0.00054159 0)
(0.00913564 -0.000523996 0)
(0.0096591 -0.000225868 0)
(0.0090859 0.00114008 0)
(0.00388189 0.00686619 0)
(-1.91425e-05 -3.21775e-07 0)
(8.25728e-05 -7.68457e-05 0)
(0.000379666 -0.000159749 0)
(0.000837118 -0.000236386 0)
(0.00143464 -0.000309042 0)
(0.00215388 -0.000380106 0)
(0.00298211 -0.000451465 0)
(0.00390897 -0.000524524 0)
(0.00492567 -0.00060065 0)
(0.0060239 -0.000681268 0)
(0.00719386 -0.000767223 0)
(0.00841928 -0.000856404 0)
(0.00966551 -0.000936779 0)
(0.0108507 -0.000966538 0)
(0.0117842 -0.000814609 0)
(0.0120155 -8.3401e-05 0)
(0.0107659 0.00240992 0)
(0.0055174 0.009919 0)
(-1.3429e-05 -1.16989e-05 0)
(0.000140665 -0.000140792 0)
(0.000530548 -0.000280894 0)
(0.00111738 -0.000411654 0)
(0.00187681 -0.000535974 0)
(0.00278616 -0.000657207 0)
(0.00382809 -0.000777975 0)
(0.00498715 -0.000899958 0)
(0.00624837 -0.00102435 0)
(0.00759516 -0.0011516 0)
(0.00900557 -0.0012796 0)
(0.0104443 -0.00139853 0)
(0.0118458 -0.00147746 0)
(0.0130796 -0.00143092 0)
(0.0138876 -0.00103358 0)
(0.0137669 0.000288556 0)
(0.0120201 0.00394401 0)
(0.00714236 0.0128297 0)
(-5.28998e-06 -3.3694e-05 0)
(0.000208297 -0.000231187 0)
(0.000692745 -0.000443986 0)
(0.00140553 -0.000644143 0)
(0.00231861 -0.00083482 0)
(0.0034053 -0.00102012 0)
(0.00464326 -0.00120307 0)
(0.00601102 -0.00138506 0)
(0.00748586 -0.00156608 0)
(0.00904056 -0.00174377 0)
(0.0106381 -0.00190992 0)
(0.012221 -0.00204149 0)
(0.0136925 -0.0020801 0)
(0.0148814 -0.00188611 0)
(0.0154939 -0.00113796 0)
(0.0150522 0.000871299 0)
(0.0130348 0.00560175 0)
(0.00873298 0.0154647 0)
(4.29502e-06 -6.91598e-05 0)
(0.000281835 -0.000352583 0)
(0.000860457 -0.000653823 0)
(0.00169321 -0.00093875 0)
(0.0027484 -0.00121046 0)
(0.00399558 -0.00147344 0)
(0.00540714 -0.00173051 0)
(0.00695483 -0.00198185 0)
(0.00860694 -0.00222478 0)
(0.0103241 -0.0024518 0)
(0.0120527 -0.00264489 0)
(0.0137136 -0.00276255 0)
(0.015183 -0.00271264 0)
(0.0162654 -0.00229848 0)
(0.0166664 -0.0011165 0)
(0.0159879 0.00161336 0)
(0.0139133 0.00727393 0)
(0.0102742 0.0177782 0)
(1.44776e-05 -0.000120638 0)
(0.000357304 -0.000509247 0)
(0.0010268 -0.000914752 0)
(0.00197038 -0.00129952 0)
(0.0031524 -0.00166644 0)
(0.00453888 -0.00201985 0)
(0.00609682 -0.00236154 0)
(0.00779079 -0.00268922 0)
(0.00957945 -0.00299571 0)
(0.0114108 -0.00326572 0)
(0.0132154 -0.00346791 0)
(0.0148951 -0.00353824 0)
(0.0163088 -0.00334844 0)
(0.0172554 -0.00264988 0)
(0.0174704 -0.0009823 0)
(0.0166637 0.00244776 0)
(0.0147066 0.0088684 0)
(0.0117526 0.0197409 0)
(2.45224e-05 -0.000190176 0)
(0.000430461 -0.000704737 0)
(0.00118389 -0.00123013 0)
(0.00222535 -0.00172903 0)
(0.00351478 -0.00220424 0)
(0.00501486 -0.00265938 0)
(0.00668738 -0.00309414 0)
(0.00848975 -0.00350226 0)
(0.0103712 -0.00387007 0)
(0.0122682 -0.00417192 0)
(0.0140974 -0.00436032 0)
(0.0157482 -0.0043468 0)
(0.0170729 -0.0039689 0)
(0.017883 -0.00293792 0)
(0.0179649 -0.000766865 0)
(0.0171413 0.00330153 0)
(0.0154309 0.0103057 0)
(0.0131508 0.0213273 0)
(3.3779e-05 -0.000279089 0)
(0.000496891 -0.000941379 0)
(0.00132306 -0.0016017 0)
(0.00244501 -0.00222771 0)
(0.00381788 -0.00282261 0)
(0.0054013 -0.00338874 0)
(0.00715233 -0.00392248 0)
(0.00902193 -0.00441205 0)
(0.0109511 -0.00483527 0)
(0.0128667 -0.00515407 0)
(0.0146762 -0.00530323 0)
(0.0162632 -0.00517055 0)
(0.0174853 -0.00456539 0)
(0.0181804 -0.00317495 0)
(0.018196 -0.000514706 0)
(0.0174551 0.00410153 0)
(0.0160789 0.011518 0)
(0.0144449 0.0225138 0)
(4.16695e-05 -0.000387819 0)
(0.000552111 -0.00121961 0)
(0.00143502 -0.00202883 0)
(0.00261514 -0.00279306 0)
(0.00404265 -0.00351677 0)
(0.00567463 -0.00420056 0)
(0.00746434 -0.00483637 0)
(0.00935764 -0.00540537 0)
(0.0112895 -0.00587523 0)
(0.0131804 -0.00619414 0)
(0.0149339 -0.00627924 0)
(0.0164359 -0.00599772 0)
(0.0175584 -0.00513974 0)
(0.0181744 -0.00338568 0)
(0.0181923 -0.000277877 0)
(0.0176156 0.00477874 0)
(0.016626 0.0124483 0)
(0.0156021 0.023278 0)
(4.73132e-05 -0.000505257 0)
(0.00058855 -0.00151078 0)
(0.00150408 -0.00246773 0)
(0.00271229 -0.00336659 0)
(0.00415905 -0.00421415 0)
(0.00579981 -0.00500926 0)
(0.00758565 -0.00573892 0)
(0.00945969 -0.0063767 0)
(0.0113539 -0.00688001 0)
(0.0131871 -0.00718421 0)
(0.0148642 -0.00719173 0)
(0.0162794 -0.00675557 0)
(0.0173241 -0.00565766 0)
(0.0179063 -0.00358662 0)
(0.0179836 -0.000125426 0)
(0.0176123 0.00523107 0)
(0.0169999 0.013003 0)
(0.016499 0.0235775 0)
(5.17143e-05 -0.000635089 0)
(0.000609966 -0.00182661 0)
(0.00153747 -0.00293724 0)
(0.00274832 -0.00397389 0)
(0.00418449 -0.00494666 0)
(0.00580071 -0.00585272 0)
(0.00754743 -0.00667366 0)
(0.00936704 -0.0073749 0)
(0.0111913 -0.00790341 0)
(0.0129408 -0.00818237 0)
(0.0145261 -0.0081019 0)
(0.015854 -0.00750577 0)
(0.0168383 -0.00617574 0)
(0.0174202 -0.0038188 0)
(0.0175976 -6.67938e-05 0)
(0.0174621 0.00549686 0)
(0.0172268 0.0132691 0)
(0.0172078 0.0235153 0)
(5.47339e-05 -0.000796446 0)
(0.000611551 -0.00221536 0)
(0.00152146 -0.00350699 0)
(0.00269732 -0.00470288 0)
(0.00407816 -0.00581839 0)
(0.00561948 -0.00684892 0)
(0.00727338 -0.00776965 0)
(0.00898448 -0.00853646 0)
(0.0106883 -0.00908472 0)
(0.0123117 -0.00932541 0)
(0.0137769 -0.00913849 0)
(0.0150085 -0.00836392 0)
(0.0159469 -0.00679276 0)
(0.0165662 -0.00416303 0)
(0.0168984 -0.000167778 0)
(0.0170555 0.00551578 0)
(0.0172406 0.0131703 0)
(0.0177241 0.0229615 0)
(5.46148e-05 -0.000988235 0)
(0.000578955 -0.00267445 0)
(0.00142282 -0.00417111 0)
(0.00250327 -0.00554325 0)
(0.00375987 -0.00681449 0)
(0.00515157 -0.00797877 0)
(0.00663583 -0.00900448 0)
(0.00816406 -0.00983738 0)
(0.00968088 -0.0104012 0)
(0.0111258 -0.0105965 0)
(0.0124382 -0.0102972 0)
(0.0135654 -0.00934689 0)
(0.0144752 -0.00755638 0)
(0.0151706 -0.00470604 0)
(0.015706 -0.000557792 0)
(0.0161984 0.00511894 0)
(0.0168275 0.0125073 0)
(0.0178139 0.0216951 0)
(4.89948e-05 -0.0011996 0)
(0.00049342 -0.00317749 0)
(0.00119844 -0.00489079 0)
(0.0020936 -0.00644445 0)
(0.00312607 -0.00787402 0)
(0.00426285 -0.00917337 0)
(0.00547187 -0.0103049 0)
(0.00671737 -0.0112051 0)
(0.00795965 -0.0117883 0)
(0.00915728 -0.0119478 0)
(0.010272 -0.0115575 0)
(0.0112761 -0.0104726 0)
(0.0121626 -0.00853238 0)
(0.012955 -0.00556636 0)
(0.0137171 -0.00140615 0)
(0.0145563 0.0040954 0)
(0.0156195 0.0110399 0)
(0.0170779 0.0194574 0)
(3.5188e-05 -0.00140041 0)
(0.000333777 -0.00365286 0)
(0.000800187 -0.00556465 0)
(0.00138757 -0.00728097 0)
(0.00206144 -0.00885213 0)
(0.0028033 -0.0102744 0)
(0.00359754 -0.0115069 0)
(0.0044277 -0.0124804 0)
(0.00527625 -0.0131035 0)
(0.00612636 -0.0132678 0)
(0.0069656 -0.0128531 0)
(0.00779124 -0.0117321 0)
(0.00861649 -0.00977663 0)
(0.00947652 -0.00686492 0)
(0.0104325 -0.0028911 0)
(0.0115713 0.0022233 0)
(0.0130028 0.00851728 0)
(0.0148516 0.0159803 0)
(1.06643e-05 -0.00152772 0)
(8.35417e-05 -0.00395284 0)
(0.000192499 -0.00598658 0)
(0.00032637 -0.00780244 0)
(0.000481117 -0.00946436 0)
(0.000659377 -0.010974 0)
(0.000866889 -0.0122921 0)
(0.00111114 -0.0133496 0)
(0.00140106 -0.0140558 0)
(0.00174766 -0.0143065 0)
(0.00216558 -0.0139916 0)
(0.00267556 -0.013003 0)
(0.00330708 -0.0112421 0)
(0.00410066 -0.00862718 0)
(0.00510874 -0.00509974 0)
(0.00639472 -0.000630443 0)
(0.00803072 0.00477649 0)
(0.0101001 0.0110827 0)
(-2.63644e-05 -0.00147314 0)
(-0.0002486 -0.00382465 0)
(-0.000599235 -0.00580332 0)
(-0.00104546 -0.00757836 0)
(-0.00155406 -0.00921737 0)
(-0.00209915 -0.010729 0)
(-0.00265356 -0.0120822 0)
(-0.00318625 -0.0132168 0)
(-0.00366244 -0.0140517 0)
(-0.00404417 -0.0144938 0)
(-0.00429088 -0.0144467 0)
(-0.00435982 -0.0138195 0)
(-0.0042064 -0.0125348 0)
(-0.00378481 -0.0105352 0)
(-0.00304896 -0.00778782 0)
(-0.00195343 -0.00428681 0)
(-0.000453203 -5.37814e-05 0)
(0.00149997 0.00486241 0)
(-5.20467e-05 -0.00120514 0)
(-0.000498108 -0.0031856 0)
(-0.00120384 -0.00489123 0)
(-0.0021069 -0.00644532 0)
(-0.00315169 -0.00790196 0)
(-0.00430101 -0.00927308 0)
(-0.00551747 -0.0105389 0)
(-0.00675808 -0.0116541 0)
(-0.00797373 -0.012554 0)
(-0.0091102 -0.0131617 0)
(-0.0101097 -0.0133962 0)
(-0.010913 -0.0131802 0)
(-0.0114616 -0.0124479 0)
(-0.0117002 -0.0111506 0)
(-0.0115788 -0.00926088 0)
(-0.0110545 -0.00677475 0)
(-0.0100905 -0.00371159 0)
(-0.00864944 -0.000112927 0)
(-6.13858e-05 -0.000904557 0)
(-0.000606772 -0.00247245 0)
(-0.00148024 -0.00386783 0)
(-0.00260957 -0.00515864 0)
(-0.00393353 -0.00638184 0)
(-0.00541358 -0.00755026 0)
(-0.00701123 -0.00865362 0)
(-0.00868185 -0.0096607 0)
(-0.0103736 -0.0105231 0)
(-0.012028 -0.0111805 0)
(-0.0135813 -0.0115674 0)
(-0.0149674 -0.0116196 0)
(-0.0161203 -0.0112809 0)
(-0.0169777 -0.0105079 0)
(-0.0174839 -0.00927445 0)
(-0.0175924 -0.00757263 0)
(-0.0172646 -0.00541366 0)
(-0.0164663 -0.00282703 0)
(-5.88198e-05 -0.000617841 0)
(-0.000613378 -0.00178536 0)
(-0.00152197 -0.00286864 0)
(-0.00271499 -0.00388413 0)
(-0.00413487 -0.00485338 0)
(-0.00574607 -0.00578907 0)
(-0.00751325 -0.00668841 0)
(-0.00939553 -0.00753226 0)
(-0.0113448 -0.008287 0)
(-0.0133055 -0.00890823 0)
(-0.0152158 -0.00934566 0)
(-0.0170093 -0.00954843 0)
(-0.0186187 -0.00947027 0)
(-0.0199789 -0.00907382 0)
(-0.0210302 -0.00833388 0)
(-0.0217218 -0.00723913 0)
(-0.0220114 -0.00579285 0)
(-0.0218631 -0.00401323 0)
(-4.80191e-05 -0.000382592 0)
(-0.000548396 -0.00120792 0)
(-0.00139848 -0.00201082 0)
(-0.00253797 -0.00277026 0)
(-0.00391685 -0.00349708 0)
(-0.00550363 -0.00420328 0)
(-0.00726752 -0.00489104 0)
(-0.00917373 -0.00555023 0)
(-0.0111812 -0.0061591 0)
(-0.0132416 -0.00668678 0)
(-0.0152995 -0.00709684 0)
(-0.017294 -0.00735111 0)
(-0.0191614 -0.0074136 0)
(-0.0208382 -0.00725388 0)
(-0.0222648 -0.00684963 0)
(-0.0233881 -0.00618821 0)
(-0.0241633 -0.00526741 0)
(-0.0245524 -0.00409647 0)
(-3.2634e-05 -0.000210269 0)
(-0.000443026 -0.000766064 0)
(-0.00117975 -0.001334 0)
(-0.00219356 -0.00187283 0)
(-0.00344218 -0.00238766 0)
(-0.00489769 -0.00288942 0)
(-0.00653394 -0.00338288 0)
(-0.0083228 -0.00386376 0)
(-0.0102314 -0.00431899 0)
(-0.0122203 -0.00472834 0)
(-0.014243 -0.00506686 0)
(-0.0162473 -0.00530758 0)
(-0.0181767 -0.0054242 0)
(-0.0199732 -0.00539359 0)
(-0.0215806 -0.00519766 0)
(-0.0229474 -0.00482464 0)
(-0.0240286 -0.00426973 0)
(-0.024786 -0.00353612 0)
(-1.58057e-05 -9.70334e-05 0)
(-0.000323242 -0.00045259 0)
(-0.000922726 -0.000833139 0)
(-0.00177446 -0.00119285 0)
(-0.00284253 -0.00153469 0)
(-0.0041019 -0.00186805 0)
(-0.00553083 -0.00219833 0)
(-0.00710757 -0.00252455 0)
(-0.0088072 -0.00283946 0)
(-0.0105994 -0.0031306 0)
(-0.0124475 -0.00338192 0)
(-0.014309 -0.00357557 0)
(-0.0161365 -0.00369367 0)
(-0.0178804 -0.00371991 0)
(-0.0194909 -0.00364091 0)
(-0.0209208 -0.00344714 0)
(-0.0221278 -0.00313339 0)
(-0.0230761 -0.00269946 0)
(-9.57053e-08 -3.17609e-05 0)
(-0.00020833 -0.000245217 0)
(-0.000667963 -0.000482581 0)
(-0.00134574 -0.0007046 0)
(-0.00221071 -0.000913857 0)
(-0.00324058 -0.00111772 0)
(-0.00441787 -0.0013209 0)
(-0.00572657 -0.00152389 0)
(-0.00714891 -0.001723 0)
(-0.00866293 -0.00191115 0)
(-0.0102413 -0.0020788 0)
(-0.0118513 -0.00221504 0)
(-0.0134557 -0.00230869 0)
(-0.015014 -0.00234925 0)
(-0.016485 -0.0023278 0)
(-0.0178282 -0.00223754 0)
(-0.0190062 -0.00207416 0)
(-0.0199878 -0.00183602 0)
(1.23536e-05 -1.09005e-06 0)
(-0.000111386 -0.000117861 0)
(-0.000441117 -0.000250931 0)
(-0.000947781 -0.000373333 0)
(-0.00160488 -0.000487518 0)
(-0.00239348 -0.000598554 0)
(-0.00330023 -0.000709796 0)
(-0.00431414 -0.000822054 0)
(-0.00542345 -0.000933702 0)
(-0.00661339 -0.00104111 0)
(-0.00786494 -0.00113921 0)
(-0.00915458 -0.00122204 0)
(-0.0104548 -0.00128339 0)
(-0.0117349 -0.00131728 0)
(-0.012963 -0.00131846 0)
(-0.0141068 -0.00128274 0)
(-0.015136 -0.00120721 0)
(-0.0160249 -0.00109012 0)
(1.95787e-05 7.90352e-06 0)
(-4.04177e-05 -4.66807e-05 0)
(-0.000256033 -0.000109046 0)
(-0.00060195 -0.000165154 0)
(-0.00105689 -0.00021687 0)
(-0.00160617 -0.000267043 0)
(-0.00224054 -0.000317563 0)
(-0.00295321 -0.00036903 0)
(-0.00373724 -0.000420862 0)
(-0.00458367 -0.00047151 0)
(-0.00548053 -0.000518718 0)
(-0.00641247 -0.00055979 0)
(-0.00736097 -0.000591851 0)
(-0.00830505 -0.000612086 0)
(-0.00922216 -0.000617948 0)
(-0.0100892 -0.000607337 0)
(-0.0108838 -0.000578692 0)
(-0.0115872 -0.000530707 0)
(1.95598e-05 6.37005e-06 0)
(4.58213e-07 -1.25067e-05 0)
(-0.000118044 -3.31485e-05 0)
(-0.000316516 -5.11674e-05 0)
(-0.000580523 -6.75144e-05 0)
(-0.000900653 -8.33262e-05 0)
(-0.00127158 -9.93396e-05 0)
(-0.00168987 -0.000115827 0)
(-0.00215219 -0.000132653 0)
(-0.00265411 -0.000149357 0)
(-0.00318935 -0.000165238 0)
(-0.00374954 -0.000179438 0)
(-0.00432431 -0.000191027 0)
(-0.00490159 -0.000199075 0)
(-0.00546818 -0.000202721 0)
(-0.00601029 -0.000201224 0)
(-0.0065141 -0.00019399 0)
(-0.00696814 -0.00018028 0)
(1.03846e-05 2.12728e-06 0)
(1.01304e-05 -5.72412e-07 0)
(-2.6723e-05 -2.27877e-06 0)
(-9.13695e-05 -3.66608e-06 0)
(-0.00017823 -4.86654e-06 0)
(-0.00028389 -6.02096e-06 0)
(-0.000406644 -7.20797e-06 0)
(-0.000545567 -8.46107e-06 0)
(-0.000699836 -9.77771e-06 0)
(-0.000868273 -1.11279e-05 0)
(-0.00104907 -1.24607e-05 0)
(-0.00123969 -1.37114e-05 0)
(-0.00143686 -1.48067e-05 0)
(-0.00163666 -1.56711e-05 0)
(-0.00183473 -1.62318e-05 0)
(-0.00202639 -1.6428e-05 0)
(-0.00220678 -1.61658e-05 0)
(-0.00237187 -1.53026e-05 0)
(1.995e-05 -4.56179e-05 3.64885e-24)
(0.000160254 -0.000116591 -5.09323e-24)
(0.00039822 -0.000163292 0)
(0.000698836 -0.000186312 0)
(0.00101608 -0.000191218 0)
(0.00131529 -0.000182942 2.75173e-24)
(0.00157129 -0.000165726 0)
(0.00176577 -0.000143122 0)
(0.00188591 -0.000117896 0)
(0.00192333 -9.20092e-05 0)
(0.00187321 -6.66827e-05 9.93445e-24)
(0.0017332 -4.26602e-05 0)
(0.0015023 -2.01955e-05 0)
(0.00118028 8.40037e-07 0)
(0.000767024 2.08304e-05 0)
(0.000262052 4.03157e-05 3.04635e-23)
(-0.0003358 5.99167e-05 0)
(-0.00102849 8.02821e-05 0)
(-0.00181871 0.000102021 0)
(-0.00270974 0.000125653 0)
(-0.00370516 0.000151577 0)
(-0.00480852 0.000180047 0)
(-0.00602289 0.000211168 0)
(-0.00735049 0.000244894 7.4157e-23)
(-0.00879221 0.000281029 -7.99704e-23)
(-0.0103473 0.000319229 8.56539e-23)
(-0.0120128 0.000359012 9.11098e-23)
(-0.0137835 0.000399752 0)
(-0.0156514 0.000440691 0)
(-0.0176056 0.000480944 -1.04945e-22)
(-0.0196323 0.000519504 -1.08269e-22)
(-0.0217145 0.000555267 0)
(-0.0238321 0.00058705 0)
(-0.0259621 0.000613625 -1.12328e-22)
(-0.0280789 0.000633757 0)
(-0.0301544 0.000646254 0)
(-0.0321587 0.000650014 1.04458e-22)
(-0.0340605 0.00064408 0)
(-0.0358281 0.000627697 9.09518e-23)
(-0.0374293 0.00060036 1.62966e-22)
(-0.038833 0.000561859 0)
(-0.0400097 0.000512304 0)
(-0.0409317 0.000452109 0)
(-0.0415749 0.000381977 0)
(-0.0419182 0.000302997 0)
(-0.0419443 0.000216913 -2.51845e-23)
(-0.04164 0.000124742 -6.70484e-23)
(-0.0409987 2.82204e-05 -1.10911e-22)
(-0.0400177 -7.05597e-05 0)
(-0.0386992 -0.000169623 2.02517e-22)
(-0.0370503 -0.000267109 0)
(-0.0350821 -0.00036128 -2.95323e-22)
(-0.03281 -0.000450582 -3.40574e-22)
(-0.0302525 -0.000533682 0)
(-0.0274309 -0.000609493 0)
(-0.0243689 -0.000677183 0)
(-0.0210917 -0.000736156 -4.98484e-22)
(-0.017626 -0.000786016 0)
(-0.0139991 -0.000826515 0)
(-0.0102394 -0.000857501 0)
(-0.00637578 -0.000878795 0)
(-0.00243866 -0.000889895 0)
(0.00154057 -0.000889781 0)
(0.00553101 -0.000878091 0)
(0.00949812 -0.000855277 0)
(0.0134048 -0.000821491 5.4505e-22)
(0.017212 -0.000776561 0)
(0.0208787 -0.000720293 0)
(0.0243611 -0.000652649 -4.39501e-22)
(0.0276138 -0.000573856 -3.94742e-22)
(0.0305899 -0.000484515 0)
(0.0332425 -0.00038568 2.9488e-22)
(0.0355261 -0.000278918 -2.41424e-22)
(0.0373979 -0.000166323 0)
(0.0388206 -5.05113e-05 1.32077e-22)
(0.0397637 6.53467e-05 0)
(0.0402056 0.000177737 0)
(0.0401354 0.00028377 2.33293e-23)
(0.0395578 0.000378684 0)
(0.0384908 0.000460493 -1.10203e-22)
(0.036965 0.000526336 0)
(0.0350258 0.000574276 1.77202e-22)
(0.0327321 0.000603291 2.02289e-22)
(0.0301533 0.000613358 2.21652e-22)
(0.027367 0.000605476 4.70909e-22)
(0.024455 0.000581576 -4.88089e-22)
(0.0214993 0.000544337 0)
(0.0185779 0.000496943 0)
(0.0157609 0.000442804 0)
(0.0131072 0.000385264 -4.75781e-22)
(0.0106625 0.000327348 -4.59381e-22)
(0.00845824 0.000271562 4.40387e-22)
(0.00651172 0.000219766 0)
(0.00482763 0.000173147 -3.99027e-22)
(0.00340009 0.000132263 -3.78378e-22)
(0.00221509 9.71794e-05 -3.58574e-22)
(0.00125287 6.76581e-05 0)
(0.000489708 4.33575e-05 0)
(-0.000100812 2.39848e-05 0)
(-0.000547001 9.35791e-06 -2.93815e-22)
(-0.000878271 -6.68233e-07 0)
(-0.00112409 -6.33586e-06 0)
(-0.00131255 -8.08792e-06 2.63719e-22)
(-0.00146869 -6.61145e-06 0)
(-0.00161305 -2.78723e-06 0)
(-0.00176062 2.42322e-06 2.47556e-22)
(-0.00192067 8.11598e-06 0)
(-0.0020972 1.35506e-05 0)
(-0.00228988 1.82016e-05 -2.39085e-22)
(-0.00249531 2.17588e-05 -2.36889e-22)
(-0.00270812 2.40923e-05 0)
(-0.00292208 2.52052e-05 2.32425e-22)
(-0.00313078 2.51867e-05 0)
(-0.00332821 2.41763e-05 -2.27187e-22)
(-0.00350914 2.2339e-05 0)
(-0.00366927 1.985e-05 -2.2077e-22)
(-0.00380536 1.68849e-05 -2.17096e-22)
(-0.00391527 1.36133e-05 0)
(-0.00399791 1.0193e-05 0)
(-0.0040532 6.76489e-06 0)
(-0.00408193 3.46373e-06 0)
(-0.00408561 4.35721e-07 0)
(-0.00406634 -2.34125e-06 0)
(-0.00402677 -4.76388e-06 0)
(-0.00396972 -6.7916e-06 -1.81151e-22)
(-0.00389819 -8.41644e-06 1.76582e-22)
(-0.0038152 -9.6465e-06 0)
(-0.00372366 -1.05035e-05 0)
(-0.00362631 -1.10197e-05 0)
(-0.00352563 -1.12348e-05 0)
(-0.00342381 -1.11921e-05 3.12313e-22)
(-0.00332275 -1.09364e-05 0)
(-0.003224 -1.05111e-05 -2.98701e-22)
(-0.00312884 -9.95704e-06 2.92477e-22)
(-0.00303822 -9.31126e-06 0)
(-0.00295288 -8.60612e-06 0)
(-0.00287328 -7.86919e-06 0)
(-0.0027997 -7.12323e-06 -2.70945e-22)
(-0.00273224 -6.38648e-06 -2.66261e-22)
(-0.0026709 -5.67302e-06 0)
(-0.00261551 -4.99326e-06 -2.57524e-22)
(-0.00256587 -4.35448e-06 -2.53413e-22)
(-0.00252169 -3.7613e-06 2.4944e-22)
(-0.00248264 -3.21625e-06 0)
(-0.00244837 -2.72013e-06 0)
(-0.00241851 -2.27248e-06 2.38122e-22)
(-0.00239267 -1.87187e-06 0)
(-0.0023705 -1.51616e-06 0)
(-0.00235164 -1.20275e-06 0)
(-0.00233572 -9.28731e-07 0)
(-0.00232242 -6.91027e-07 -2.20233e-22)
(-0.00231144 -4.86482e-07 -2.16693e-22)
(-0.00230248 -3.11952e-07 0)
(-0.00229527 -1.64352e-07 -2.09589e-22)
(-0.00228957 -4.06802e-08 0)
(-0.00228516 6.19525e-08 0)
(-0.00228183 1.46189e-07 -1.98817e-22)
(-0.00227941 2.13956e-07 0)
(-0.00227775 2.67748e-07 -1.91534e-22)
(-0.00227672 3.1071e-07 0)
(-0.00227623 3.4633e-07 0)
(-0.00227623 3.78383e-07 -1.80445e-22)
(-0.00227668 4.10861e-07 0)
(-0.00227761 4.47584e-07 -1.72942e-22)
(-0.00227908 4.91161e-07 0)
(-0.0022812 5.39953e-07 0)
(-0.0022841 5.84871e-07 0)
(-0.00228791 6.44415e-07 1.57601e-22)
(-0.00229266 7.54571e-07 0)
(-0.00229821 8.7073e-07 -1.49647e-22)
(-0.00230423 9.39121e-07 0)
(-0.00231003 9.2347e-07 0)
(-0.00231439 8.78729e-07 0)
(-0.00231549 6.54282e-07 0)
(-0.00231083 1.60199e-07 0)
(-0.002297 -6.3112e-07 0)
(-0.00226858 -2.01484e-06 0)
(-0.00221808 -5.09788e-06 2.26912e-22)
(-0.00214744 -5.45959e-06 0)
(-0.00190272 -3.857e-05 0)
(3.84324e-05 -0.000319683 -1.34327e-23)
(0.000302714 -0.000773421 1.86837e-23)
(0.000697186 -0.00104671 0)
(0.00115549 -0.00115622 -1.25575e-23)
(0.00159906 -0.00112915 0)
(0.00196708 -0.00099482 -2.94039e-24)
(0.00221274 -0.000780563 4.6134e-24)
(0.00229952 -0.000510073 3.66678e-25)
(0.00219946 -0.000202836 0)
(0.00189195 0.000126001 -1.02242e-23)
(0.00136225 0.000465465 -1.0669e-23)
(0.000600006 0.000808075 0)
(-0.000401899 0.00114952 0)
(-0.0016487 0.00148808 0)
(-0.00314463 0.00182391 0)
(-0.00489367 0.0021585 -3.25066e-23)
(-0.00689988 0.00249396 0)
(-0.00916752 0.00283248 7.47204e-23)
(-0.0117009 0.00317584 0)
(-0.0145038 0.00352497 0)
(-0.017579 0.0038797 -1.06214e-22)
(-0.0209273 0.00423853 0)
(-0.0245468 0.0045986 1.28639e-22)
(-0.0284317 0.00495568 -7.72453e-23)
(-0.0325718 0.00530431 8.29738e-23)
(-0.0369514 0.00563789 -8.85094e-23)
(-0.041549 0.0059489 -9.37549e-23)
(-0.0463365 0.00622913 0)
(-0.0512795 0.00646987 0)
(-0.0563366 0.00666222 1.06637e-22)
(-0.0614602 0.00679739 -9.79772e-23)
(-0.0665968 0.00686695 0)
(-0.0716873 0.00686323 0)
(-0.0766688 0.00677956 1.12447e-22)
(-0.0814749 0.00661064 0)
(-0.0860374 0.00635278 0)
(-0.0902878 0.00600413 -1.03762e-22)
(-0.0941584 0.00556488 0)
(-0.0975841 0.00503733 9.12229e-23)
(-0.100504 0.00442592 -1.61337e-22)
(-0.102862 0.00373715 0)
(-0.104608 0.00297942 0)
(-0.105702 0.00216263 -1.82888e-22)
(-0.106109 0.00129805 -1.20005e-22)
(-0.105803 0.000398398 -5.02828e-23)
(-0.10477 -0.000522777 -5.36584e-25)
(-0.103004 -0.00145184 6.69651e-23)
(-0.100509 -0.00237492 3.04154e-22)
(-0.0972958 -0.00327888 -2.82973e-22)
(-0.093385 -0.00415166 -2.04206e-22)
(-0.0888036 -0.00498246 0)
(-0.083585 -0.00576198 3.00489e-22)
(-0.0777678 -0.00648256 -3.11274e-22)
(-0.0713949 -0.00713819 0)
(-0.0645124 -0.0077245 0)
(-0.0571689 -0.00823862 0)
(-0.0494144 -0.00867896 5.23242e-22)
(-0.0412999 -0.00904489 0)
(-0.0328769 -0.00933639 -1.13944e-21)
(-0.0241975 -0.00955363 0)
(-0.0153141 -0.00969652 -1.23462e-21)
(-0.00628101 -0.00976416 0)
(0.00284465 -0.00975462 1.26539e-21)
(0.0120072 -0.0096656 0)
(0.0211438 -0.00949477 -1.18746e-21)
(0.0301872 -0.00923935 5.42811e-22)
(0.0390657 -0.0088959 0)
(0.0477025 -0.0084608 9.7718e-22)
(0.056014 -0.00793097 4.63162e-22)
(0.0639111 -0.00730452 4.13741e-22)
(0.0712992 -0.00658152 0)
(0.0780795 -0.00576464 2.72421e-22)
(0.0841514 -0.00485976 2.49849e-22)
(0.0894143 -0.00387655 0)
(0.0937715 -0.00282875 -1.36007e-22)
(0.0971337 -0.00173446 1.36314e-22)
(0.0994234 -0.000616316 0)
(0.100577 0.000499346 -2.39927e-23)
(0.100555 0.00158734 0)
(0.0993496 0.00261438 3.49902e-22)
(0.0969767 0.00355072 0)
(0.0934877 0.00436908 -5.49478e-22)
(0.0889691 0.00504529 -2.09209e-22)
(0.0835418 0.00556046 2.22743e-22)
(0.0773578 0.00590294 4.68405e-22)
(0.070595 0.00606954 -4.81958e-22)
(0.0634485 0.00606596 0)
(0.0561211 0.00590653 0)
(0.0488114 0.00561296 0)
(0.041703 0.00521242 1.49525e-21)
(0.0349548 0.00473503 4.99767e-22)
(0.0286934 0.00421117 -4.82547e-22)
(0.0230094 0.00366905 0)
(0.0179569 0.0031328 -4.04467e-22)
(0.0135564 0.00262139 4.22452e-22)
(0.00979942 0.00214855 4.02382e-22)
(0.00665419 0.00172346 0)
(0.00407127 0.00135192 0)
(0.00198824 0.00103741 0)
(0.000333576 0.000781653 3.34767e-22)
(-0.000969635 0.00058451 0)
(-0.00199979 0.000443425 -6.10009e-22)
(-0.00283222 0.000353063 -8.9347e-22)
(-0.00353466 0.000305418 5.78814e-22)
(-0.00416345 0.000290558 0)
(-0.00476111 0.0002978 2.76423e-22)
(-0.0053556 0.000317 0)
(-0.00596146 0.000339575 5.45556e-22)
(-0.00658202 0.000359058 -2.67841e-22)
(-0.00721228 0.000371193 -2.65626e-22)
(-0.00784183 0.000373698 0)
(-0.0084574 0.000365856 -7.91376e-22)
(-0.0090449 0.000348073 5.21086e-22)
(-0.0095909 0.00032149 2.59208e-22)
(-0.0100836 0.000287686 0)
(-0.0105137 0.000248453 2.52048e-22)
(-0.0108741 0.000205639 7.42137e-22)
(-0.0111607 0.00016104 0)
(-0.0113719 0.000116313 4.76882e-22)
(-0.0115087 7.292e-05 4.67465e-22)
(-0.011574 3.21009e-05 4.57669e-22)
(-0.0115726 -5.128e-06 0)
(-0.0115106 -3.81709e-05 0)
(-0.0113954 -6.65392e-05 0)
(-0.0112345 -9.0022e-05 -2.08852e-22)
(-0.0110361 -0.00010863 -2.02882e-22)
(-0.010808 -0.00012255 0)
(-0.010558 -0.000132103 -3.87572e-22)
(-0.0102932 -0.000137711 -3.78495e-22)
(-0.01002 -0.000139857 0)
(-0.00974417 -0.000139053 -3.60353e-22)
(-0.00947047 -0.000135815 -7.07537e-22)
(-0.00920303 -0.000130638 3.45241e-22)
(-0.00894511 -0.000123983 3.40509e-22)
(-0.00869925 -0.000116267 0)
(-0.00846732 -0.000107854 0)
(-0.00825058 -9.90547e-05 0)
(-0.00804978 -9.01278e-05 3.1446e-22)
(-0.00786525 -8.12813e-05 -3.10712e-22)
(-0.00769693 -7.26782e-05 -6.09932e-22)
(-0.00754451 -6.44408e-05 2.99576e-22)
(-0.00740743 -5.6657e-05 -2.9604e-22)
(-0.00728498 -4.93852e-05 -2.90601e-22)
(-0.00717633 -4.26597e-05 0)
(-0.00708055 -3.64958e-05 0)
(-0.0069967 -3.08932e-05 2.78587e-22)
(-0.00692379 -2.58406e-05 0)
(-0.00686087 -2.13178e-05 0)
(-0.00680697 -1.72985e-05 -5.32218e-22)
(-0.00676119 -1.37524e-05 0)
(-0.00672263 -1.06467e-05 -2.58208e-22)
(-0.00669048 -7.94707e-06 2.53998e-22)
(-0.00666395 -5.61875e-06 0)
(-0.00664233 -3.62716e-06 -2.46087e-22)
(-0.00662495 -1.93822e-06 0)
(-0.00661121 -5.18532e-07 0)
(-0.00660056 6.64576e-07 2.33788e-22)
(-0.00659253 1.64296e-06 -4.59328e-22)
(-0.00658669 2.44965e-06 2.25507e-22)
(-0.0065827 3.11991e-06 0)
(-0.00658029 3.69181e-06 0)
(-0.00657927 4.20676e-06 -2.12801e-22)
(-0.00657956 4.70909e-06 0)
(-0.00658118 5.24339e-06 -2.04187e-22)
(-0.00658425 5.84836e-06 0)
(-0.00658898 6.54509e-06 0)
(-0.00659558 7.32162e-06 0)
(-0.00660422 8.14982e-06 -1.866e-22)
(-0.00661484 8.95601e-06 0)
(-0.00662697 9.54831e-06 1.77403e-22)
(-0.00663942 9.55961e-06 0)
(-0.00665002 8.6153e-06 0)
(-0.00665533 6.29632e-06 -3.25513e-22)
(-0.00665037 1.89919e-06 3.15213e-22)
(-0.00662821 -5.33525e-06 0)
(-0.00657971 -1.63604e-05 0)
(-0.00649153 -3.3037e-05 0)
(-0.00634712 -5.89093e-05 -8.13129e-22)
(-0.00614211 -0.000101135 0)
(-0.005653 -0.000202588 4.94337e-22)
(3.63904e-05 -0.000659695 -5.72089e-24)
(0.000267858 -0.00150308 -3.3398e-23)
(0.000570822 -0.00193548 0)
(0.000867763 -0.00202197 3.10263e-23)
(0.00107388 -0.00182584 0)
(0.00112371 -0.00140614 0)
(0.000965809 -0.00081566 5.51857e-24)
(0.000558595 -0.000100002 -3.67669e-25)
(-0.000131405 0.000703078 -1.34572e-24)
(-0.00113078 0.00156349 1.02222e-23)
(-0.00246046 0.00245832 0)
(-0.00413678 0.00337135 0)
(-0.00617252 0.0042921 -2.24655e-23)
(-0.00857787 0.0052148 -5.91008e-23)
(-0.011361 0.00613718 7.41521e-23)
(-0.0145286 0.00705925 0)
(-0.0180857 0.00798203 1.06941e-22)
(-0.0220357 0.00890632 -7.2804e-23)
(-0.0263798 0.00983166 0)
(-0.031116 0.0107555 1.62883e-22)
(-0.0362384 0.0116726 1.02441e-22)
(-0.0417359 0.0125746 -2.0428e-22)
(-0.0475915 0.0134505 -1.23175e-22)
(-0.0537808 0.0142859 0)
(-0.0602716 0.0150643 2.70186e-22)
(-0.0670233 0.0157673 2.92311e-22)
(-0.0739865 0.0163749 0)
(-0.0811032 0.0168667 3.34923e-22)
(-0.0883074 0.0172227 0)
(-0.0955258 0.0174235 3.72616e-22)
(-0.102679 0.0174517 1.93858e-22)
(-0.109682 0.0172923 0)
(-0.116448 0.0169335 0)
(-0.122889 0.0163673 0)
(-0.128916 0.0155899 0)
(-0.134443 0.0146019 0)
(-0.139389 0.0134086 0)
(-0.143679 0.0120199 3.91115e-22)
(-0.147245 0.0104499 -5.38366e-22)
(-0.150026 0.00871688 0)
(-0.151973 0.00684255 0)
(-0.153046 0.00485131 0)
(-0.153215 0.00276971 -4.19901e-23)
(-0.152462 0.0006261 1.12694e-22)
(-0.150779 -0.00154985 1.39023e-22)
(-0.148171 -0.00372839 2.91772e-24)
(-0.144651 -0.00588098 5.49528e-23)
(-0.140241 -0.00798123 -1.82006e-22)
(-0.134968 -0.010005 4.62271e-23)
(-0.128871 -0.011931 -3.09019e-22)
(-0.121993 -0.0137407 0)
(-0.11438 -0.015419 -4.90379e-22)
(-0.106084 -0.0169542 4.63204e-23)
(-0.0971602 -0.018338 0)
(-0.0876646 -0.0195651 0)
(-0.0776542 -0.0206329 8.41146e-22)
(-0.0671864 -0.021541 0)
(-0.056318 -0.0222907 0)
(-0.0451054 -0.0228839 -1.00579e-21)
(-0.0336044 -0.0233228 -2.21797e-21)
(-0.0218704 -0.0236085 1.20337e-21)
(-0.00996015 -0.0237411 0)
(0.00206725 -0.0237184 -1.24204e-21)
(0.0141554 -0.0235362 0)
(0.0262402 -0.0231876 -1.06217e-21)
(0.0382508 -0.0226647 -1.09797e-21)
(0.0501113 -0.0219582 1.95799e-21)
(0.0617387 -0.0210581 8.52726e-22)
(0.0730419 -0.0199548 0)
(0.083921 -0.0186402 -1.42984e-21)
(0.0942674 -0.0171094 0)
(0.103965 -0.0153618 -1.57375e-21)
(0.11289 -0.0134023 -8.08213e-22)
(0.120915 -0.0112431 -5.94938e-22)
(0.12791 -0.00890435 3.84295e-22)
(0.133746 -0.00641506 -3.09055e-22)
(0.138299 -0.00381391 0)
(0.14146 -0.00114937 0)
(0.14313 0.00152307 -3.64271e-22)
(0.143229 0.00413467 -7.33537e-22)
(0.141721 0.00661496 0)
(0.138606 0.00889313 3.44594e-22)
(0.133924 0.0109001 0)
(0.127769 0.012573 -1.30458e-21)
(0.120284 0.0138609 2.04899e-23)
(0.111663 0.0147294 -1.01363e-23)
(0.102147 0.0151647 9.5125e-22)
(0.0920077 0.0151757 0)
(0.081539 0.0147944 -9.31159e-22)
(0.0710354 0.0140727 -2.4407e-23)
(0.0607746 0.013078 0)
(0.0510006 0.0118863 0)
(0.0419103 0.0105752 0)
(0.0336457 0.00921668 8.22377e-22)
(0.0262927 0.00787303 0)
(0.019884 0.00659377 0)