/*--------------------------------*- C++ -*----------------------------------*\
  =========                 |
  \\      /  F ield         | OpenFOAM: The Open Source CFD Toolbox
   \\    /   O peration     | Website:  https://openfoam.org
    \\  /    A nd           | Version:  8
     \\/     M anipulation  |
\*---------------------------------------------------------------------------*/
FoamFile
{
    version     2.0;
    format      ascii;
    class       volScalarField;
    location    "0.26";
    object      p;
}
// * * * * * * * * * * * * * * * * * * * * * * * * * * * * * * * * * * * * * //

dimensions      [0 2 -2 0 0 0 0];

internalField   nonuniform List<scalar> 
12225
(
-1.46631
-1.50524
-1.49131
-1.48162
-1.47126
-1.46077
-1.45052
-1.44052
-1.4308
-1.4214
-1.41234
-1.40365
-1.39537
-1.38759
-1.38054
-1.37459
-1.37142
-1.37456
-1.47582
-1.50371
-1.49052
-1.48106
-1.47085
-1.46044
-1.45023
-1.44026
-1.43056
-1.42117
-1.41213
-1.40345
-1.39519
-1.38743
-1.38039
-1.37436
-1.37053
-1.37049
-1.48491
-1.50211
-1.48961
-1.48042
-1.47037
-1.46003
-1.44988
-1.43994
-1.43026
-1.42089
-1.41186
-1.40319
-1.39494
-1.38719
-1.3801
-1.37389
-1.36927
-1.36676
-1.4919
-1.50078
-1.48894
-1.47985
-1.46993
-1.45965
-1.44954
-1.43963
-1.42997
-1.42061
-1.41158
-1.40291
-1.39465
-1.38686
-1.37967
-1.3732
-1.36787
-1.3637
-1.49737
-1.4998
-1.4885
-1.4794
-1.46955
-1.45932
-1.44924
-1.43935
-1.4297
-1.42034
-1.41131
-1.40263
-1.39433
-1.38648
-1.37913
-1.37235
-1.36638
-1.36107
-1.50187
-1.49923
-1.48822
-1.47907
-1.46925
-1.45904
-1.44898
-1.4391
-1.42946
-1.4201
-1.41106
-1.40235
-1.39401
-1.38605
-1.37852
-1.37142
-1.36489
-1.35883
-1.50561
-1.49907
-1.48808
-1.47884
-1.46903
-1.45884
-1.44879
-1.43892
-1.42928
-1.41992
-1.41085
-1.40211
-1.3937
-1.38564
-1.37792
-1.37054
-1.36356
-1.35705
-1.50869
-1.49925
-1.48806
-1.47873
-1.4689
-1.45871
-1.44867
-1.43882
-1.42919
-1.41981
-1.41073
-1.40194
-1.39347
-1.3853
-1.37742
-1.36983
-1.36257
-1.35583
-1.5112
-1.49972
-1.48816
-1.47871
-1.46885
-1.45867
-1.44864
-1.43881
-1.42919
-1.41982
-1.41072
-1.40191
-1.39337
-1.38512
-1.37714
-1.36942
-1.36204
-1.35524
-1.51324
-1.50039
-1.48839
-1.47878
-1.46889
-1.45872
-1.44871
-1.43891
-1.42932
-1.41996
-1.41087
-1.40205
-1.39349
-1.38521
-1.37718
-1.36944
-1.36207
-1.35533
-1.51492
-1.50117
-1.48872
-1.47895
-1.46901
-1.45885
-1.44886
-1.43911
-1.42957
-1.42026
-1.4112
-1.40241
-1.39387
-1.38561
-1.37762
-1.36996
-1.3627
-1.35611
-1.51621
-1.50194
-1.48909
-1.47915
-1.46919
-1.45902
-1.44907
-1.43937
-1.4299
-1.42066
-1.41167
-1.40294
-1.39448
-1.3863
-1.37842
-1.3709
-1.36381
-1.3574
-1.51723
-1.50279
-1.48955
-1.4794
-1.46943
-1.45929
-1.44936
-1.43972
-1.43032
-1.42117
-1.41227
-1.40365
-1.3953
-1.38725
-1.37953
-1.37219
-1.36531
-1.3591
-1.5182
-1.5038
-1.49015
-1.47974
-1.46978
-1.45968
-1.44979
-1.44021
-1.43092
-1.42189
-1.41313
-1.40466
-1.39649
-1.38864
-1.38114
-1.37405
-1.36745
-1.36146
-1.51915
-1.50491
-1.4909
-1.48021
-1.47026
-1.46021
-1.45037
-1.44088
-1.43171
-1.42284
-1.41426
-1.406
-1.39806
-1.39048
-1.38327
-1.3765
-1.3702
-1.36447
-1.52012
-1.50607
-1.49179
-1.48083
-1.47089
-1.46092
-1.45114
-1.44174
-1.43273
-1.42404
-1.41568
-1.40766
-1.4
-1.39272
-1.38584
-1.3794
-1.37342
-1.36796
-1.52112
-1.50726
-1.49282
-1.48164
-1.47171
-1.46183
-1.45214
-1.44286
-1.434
-1.42551
-1.41738
-1.40962
-1.40225
-1.39528
-1.38872
-1.38259
-1.3769
-1.37168
-1.52214
-1.50845
-1.49394
-1.48264
-1.47274
-1.46299
-1.45342
-1.44428
-1.43559
-1.42731
-1.41941
-1.41191
-1.4048
-1.3981
-1.39182
-1.38595
-1.3805
-1.37548
-1.52311
-1.50952
-1.49506
-1.48379
-1.47401
-1.46441
-1.45501
-1.44605
-1.43756
-1.42949
-1.42183
-1.41456
-1.4077
-1.40123
-1.39517
-1.3895
-1.38423
-1.37933
-1.52371
-1.51005
-1.49578
-1.48481
-1.47523
-1.4658
-1.45657
-1.44779
-1.43949
-1.43161
-1.42412
-1.41703
-1.41033
-1.40402
-1.3981
-1.39255
-1.38736
-1.38253
-1.52379
-1.51011
-1.49614
-1.48555
-1.4762
-1.46693
-1.45787
-1.44926
-1.44111
-1.43336
-1.426
-1.41902
-1.41243
-1.40621
-1.40036
-1.39487
-1.38973
-1.38492
-1.52338
-1.50981
-1.49635
-1.48623
-1.47713
-1.46802
-1.45913
-1.45067
-1.44264
-1.435
-1.42772
-1.42081
-1.41428
-1.40811
-1.4023
-1.39682
-1.39168
-1.38686
-1.52238
-1.50924
-1.49653
-1.48693
-1.47804
-1.46909
-1.46034
-1.452
-1.44404
-1.43645
-1.42921
-1.42234
-1.41582
-1.40966
-1.40385
-1.39836
-1.3932
-1.38834
-1.5206
-1.5085
-1.49682
-1.48767
-1.47894
-1.4701
-1.46144
-1.45315
-1.44521
-1.43761
-1.43037
-1.42349
-1.41696
-1.41079
-1.40495
-1.39945
-1.39426
-1.38936
-1.5178
-1.50781
-1.49729
-1.48841
-1.47977
-1.47097
-1.46233
-1.45402
-1.44605
-1.43842
-1.43115
-1.42425
-1.41769
-1.41149
-1.40564
-1.40011
-1.3949
-1.38998
-1.51377
-1.50745
-1.49796
-1.48912
-1.48048
-1.47167
-1.46298
-1.45462
-1.4466
-1.43893
-1.43163
-1.42469
-1.41812
-1.41189
-1.40602
-1.40047
-1.39525
-1.39032
-1.50823
-1.50772
-1.49879
-1.48979
-1.4811
-1.4722
-1.46345
-1.45502
-1.44695
-1.43924
-1.43191
-1.42494
-1.41834
-1.4121
-1.40621
-1.40065
-1.39542
-1.39048
-1.50041
-1.50872
-1.49981
-1.49049
-1.48166
-1.47264
-1.46381
-1.45532
-1.44719
-1.43945
-1.43208
-1.42509
-1.41846
-1.41221
-1.4063
-1.40073
-1.39548
-1.39053
-1.48946
-1.51029
-1.50102
-1.49126
-1.4822
-1.47303
-1.46411
-1.45556
-1.44738
-1.43959
-1.43219
-1.42517
-1.41853
-1.41225
-1.40632
-1.40074
-1.39548
-1.39052
-1.47769
-1.51186
-1.50198
-1.49188
-1.48262
-1.47333
-1.46434
-1.45573
-1.44751
-1.43969
-1.43226
-1.42522
-1.41856
-1.41226
-1.40632
-1.40072
-1.39545
-1.39049
-1.31527
-1.31513
-1.315
-1.31497
-1.31508
-1.31533
-1.31573
-1.31627
-1.31695
-1.31776
-1.31867
-1.31968
-1.32076
-1.3219
-1.32311
-1.32437
-1.32568
-1.32706
-1.3285
-1.33003
-1.33165
-1.33339
-1.33527
-1.33729
-1.33948
-1.34185
-1.34441
-1.34717
-1.35012
-1.35327
-1.3566
-1.36008
-1.36369
-1.36739
-1.37112
-1.37482
-1.37843
-1.38184
-1.38498
-1.38775
-1.39004
-1.39176
-1.3928
-1.39307
-1.39248
-1.39096
-1.38843
-1.38484
-1.38016
-1.37436
-1.36744
-1.35941
-1.3503
-1.34015
-1.32903
-1.317
-1.30417
-1.29063
-1.27649
-1.26187
-1.24692
-1.23176
-1.21655
-1.2014
-1.18647
-1.17188
-1.15774
-1.14416
-1.13121
-1.11897
-1.10749
-1.09679
-1.08689
-1.07777
-1.06942
-1.0618
-1.05487
-1.04858
-1.04286
-1.03766
-1.03292
-1.02857
-1.02456
-1.02083
-1.01733
-1.01401
-1.01082
-1.00774
-1.00472
-1.00174
-0.998763
-0.995776
-0.992757
-0.98969
-0.986562
-0.983363
-0.980082
-0.976714
-0.973252
-0.969693
-0.966032
-0.962268
-0.9584
-0.954426
-0.950347
-0.946163
-0.941874
-0.937482
-0.932988
-0.928393
-0.923701
-0.918911
-0.914028
-0.909052
-0.903986
-0.898833
-0.893594
-0.888273
-0.882871
-0.877391
-0.871835
-0.866206
-0.860505
-0.854736
-0.848899
-0.842998
-0.837033
-0.831007
-0.82492
-0.818776
-0.812574
-0.806316
-0.800003
-0.793635
-0.787215
-0.780741
-0.774216
-0.767638
-0.761009
-0.754329
-0.747598
-0.740815
-0.733982
-0.727097
-0.720161
-0.713174
-0.706134
-0.699043
-0.691899
-0.684702
-0.677452
-0.670148
-0.66279
-0.655376
-0.647908
-0.640384
-0.632803
-0.625166
-0.617471
-0.609718
-0.601907
-0.594038
-0.586109
-0.578121
-0.570073
-0.561966
-0.553798
-0.54557
-0.537282
-0.528934
-0.520527
-0.512061
-0.503536
-0.494955
-0.486318
-0.477625
-0.468879
-0.460085
-0.451204
-0.442152
-1.31556
-1.31537
-1.31522
-1.3152
-1.31532
-1.31559
-1.31599
-1.31653
-1.3172
-1.31797
-1.31884
-1.31979
-1.32081
-1.32188
-1.32301
-1.32418
-1.3254
-1.32667
-1.32801
-1.32942
-1.33092
-1.33254
-1.33428
-1.33616
-1.33821
-1.34043
-1.34283
-1.34544
-1.34824
-1.35124
-1.35443
-1.35779
-1.3613
-1.36492
-1.36862
-1.37232
-1.37597
-1.37949
-1.38278
-1.38574
-1.38828
-1.39028
-1.39162
-1.39222
-1.39197
-1.39078
-1.38858
-1.38531
-1.38092
-1.37539
-1.36871
-1.3609
-1.35198
-1.342
-1.33101
-1.31908
-1.3063
-1.29277
-1.27863
-1.264
-1.24901
-1.2338
-1.21852
-1.2033
-1.18829
-1.1736
-1.15936
-1.14568
-1.13264
-1.1203
-1.10872
-1.09793
-1.08794
-1.07874
-1.07032
-1.06263
-1.05563
-1.04927
-1.04349
-1.03824
-1.03344
-1.02903
-1.02497
-1.02119
-1.01764
-1.01427
-1.01105
-1.00793
-1.00487
-1.00185
-0.998851
-0.995837
-0.992794
-0.989706
-0.98656
-0.983344
-0.980051
-0.976671
-0.9732
-0.969633
-0.965967
-0.962199
-0.958327
-0.954352
-0.950271
-0.946087
-0.941799
-0.937408
-0.932916
-0.928324
-0.923634
-0.918848
-0.913967
-0.908995
-0.903933
-0.898783
-0.893548
-0.88823
-0.882831
-0.877354
-0.871801
-0.866175
-0.860478
-0.854711
-0.848877
-0.842978
-0.837015
-0.830991
-0.824906
-0.818763
-0.812562
-0.806306
-0.799994
-0.793628
-0.787208
-0.780736
-0.774211
-0.767634
-0.761006
-0.754326
-0.747595
-0.740813
-0.73398
-0.727095
-0.72016
-0.713172
-0.706133
-0.699042
-0.691898
-0.684701
-0.677451
-0.670147
-0.662789
-0.655375
-0.647907
-0.640383
-0.632802
-0.625165
-0.61747
-0.609717
-0.601906
-0.594037
-0.586108
-0.57812
-0.570072
-0.561964
-0.553797
-0.545569
-0.537281
-0.528933
-0.520526
-0.51206
-0.503536
-0.494956
-0.486319
-0.477629
-0.468888
-0.460099
-0.451228
-0.44227
-1.31538
-1.31516
-1.31501
-1.31501
-1.31517
-1.31548
-1.31592
-1.31649
-1.31718
-1.31797
-1.31883
-1.31976
-1.32074
-1.32175
-1.32281
-1.32389
-1.32501
-1.32617
-1.32738
-1.32866
-1.33003
-1.3315
-1.33311
-1.33486
-1.33679
-1.3389
-1.34123
-1.34379
-1.34658
-1.34963
-1.35292
-1.35646
-1.36022
-1.36417
-1.36826
-1.37243
-1.3766
-1.38068
-1.38455
-1.3881
-1.39121
-1.39375
-1.39559
-1.39663
-1.39675
-1.39587
-1.39391
-1.3908
-1.38652
-1.38104
-1.37436
-1.3665
-1.35748
-1.34736
-1.33619
-1.32407
-1.31109
-1.29736
-1.283
-1.26814
-1.25291
-1.23745
-1.22191
-1.20643
-1.19114
-1.17619
-1.16169
-1.14776
-1.13448
-1.12192
-1.11014
-1.09917
-1.08902
-1.07968
-1.07113
-1.06333
-1.05625
-1.04981
-1.04397
-1.03865
-1.0338
-1.02936
-1.02526
-1.02145
-1.01787
-1.01447
-1.01122
-1.00808
-1.005
-1.00197
-0.998943
-0.995912
-0.992854
-0.989752
-0.986593
-0.983366
-0.980062
-0.976674
-0.973195
-0.969621
-0.965949
-0.962176
-0.958301
-0.954322
-0.950239
-0.946053
-0.941764
-0.937372
-0.93288
-0.928288
-0.923599
-0.918813
-0.913934
-0.908963
-0.903902
-0.898754
-0.89352
-0.888204
-0.882807
-0.877332
-0.871781
-0.866156
-0.86046
-0.854694
-0.848862
-0.842964
-0.837002
-0.830979
-0.824896
-0.818754
-0.812554
-0.806298
-0.799987
-0.793621
-0.787202
-0.78073
-0.774206
-0.767629
-0.761002
-0.754322
-0.747591
-0.74081
-0.733977
-0.727092
-0.720157
-0.71317
-0.706131
-0.699039
-0.691896
-0.684699
-0.677449
-0.670145
-0.662787
-0.655374
-0.647905
-0.640381
-0.6328
-0.625163
-0.617468
-0.609715
-0.601904
-0.594035
-0.586106
-0.578118
-0.57007
-0.561962
-0.553794
-0.545566
-0.537278
-0.528931
-0.520524
-0.512058
-0.503534
-0.494954
-0.486319
-0.477631
-0.468895
-0.460111
-0.45126
-0.442429
-1.31454
-1.31436
-1.31425
-1.31431
-1.31454
-1.31492
-1.31543
-1.31607
-1.31681
-1.31763
-1.31852
-1.31945
-1.32042
-1.32141
-1.32241
-1.32343
-1.32447
-1.32554
-1.32666
-1.32785
-1.32913
-1.33054
-1.33211
-1.33387
-1.33585
-1.3381
-1.34063
-1.3435
-1.34671
-1.35029
-1.35424
-1.35854
-1.36316
-1.36804
-1.37312
-1.3783
-1.38346
-1.38848
-1.39321
-1.39753
-1.40128
-1.40433
-1.40655
-1.40783
-1.40807
-1.40718
-1.40512
-1.40183
-1.39729
-1.39151
-1.38448
-1.37624
-1.36682
-1.35628
-1.3447
-1.33218
-1.3188
-1.30467
-1.2899
-1.27461
-1.25895
-1.24305
-1.22706
-1.21112
-1.19538
-1.17998
-1.16505
-1.1507
-1.13702
-1.1241
-1.11199
-1.10073
-1.09032
-1.08076
-1.07202
-1.06406
-1.05685
-1.05031
-1.04438
-1.039
-1.0341
-1.02961
-1.02548
-1.02164
-1.01805
-1.01464
-1.01138
-1.00822
-1.00514
-1.0021
-0.999069
-0.996033
-0.992968
-0.98986
-0.986696
-0.983462
-0.980152
-0.976757
-0.973272
-0.969692
-0.966014
-0.962235
-0.958353
-0.954369
-0.950281
-0.94609
-0.941796
-0.937401
-0.932904
-0.928309
-0.923616
-0.918828
-0.913946
-0.908973
-0.90391
-0.89876
-0.893525
-0.888207
-0.882809
-0.877332
-0.87178
-0.866155
-0.860458
-0.854692
-0.848859
-0.842961
-0.836999
-0.830976
-0.824892
-0.818749
-0.81255
-0.806294
-0.799982
-0.793617
-0.787198
-0.780726
-0.774201
-0.767625
-0.760997
-0.754318
-0.747587
-0.740805
-0.733973
-0.727088
-0.720153
-0.713166
-0.706127
-0.699036
-0.691892
-0.684696
-0.677446
-0.670142
-0.662784
-0.655371
-0.647902
-0.640378
-0.632798
-0.62516
-0.617465
-0.609713
-0.601902
-0.594032
-0.586104
-0.578115
-0.570067
-0.561959
-0.553791
-0.545563
-0.537275
-0.528927
-0.52052
-0.512054
-0.50353
-0.49495
-0.486316
-0.47763
-0.468897
-0.460115
-0.451278
-0.442552
-1.31302
-1.31292
-1.31291
-1.31307
-1.31339
-1.31385
-1.31445
-1.31515
-1.31596
-1.31683
-1.31775
-1.31871
-1.31969
-1.32068
-1.32167
-1.32267
-1.3237
-1.32476
-1.32589
-1.32711
-1.32847
-1.33002
-1.3318
-1.33387
-1.33627
-1.33907
-1.34231
-1.34602
-1.35023
-1.35494
-1.36011
-1.36572
-1.37168
-1.3779
-1.38427
-1.39063
-1.39685
-1.40277
-1.40824
-1.4131
-1.41721
-1.42045
-1.42271
-1.42388
-1.42388
-1.42267
-1.42021
-1.41646
-1.41143
-1.40512
-1.39756
-1.38878
-1.37884
-1.3678
-1.35574
-1.34273
-1.32886
-1.31424
-1.29897
-1.28317
-1.26698
-1.25054
-1.23399
-1.21748
-1.20116
-1.18519
-1.16969
-1.15479
-1.1406
-1.1272
-1.11465
-1.10299
-1.09223
-1.08236
-1.07336
-1.06519
-1.05779
-1.05109
-1.04504
-1.03956
-1.03458
-1.03004
-1.02586
-1.02198
-1.01836
-1.01493
-1.01166
-1.00849
-1.0054
-1.00235
-0.999309
-0.996265
-0.993193
-0.990078
-0.986905
-0.983664
-0.980345
-0.97694
-0.973446
-0.969856
-0.966167
-0.962378
-0.958486
-0.954492
-0.950394
-0.946193
-0.94189
-0.937485
-0.93298
-0.928377
-0.923677
-0.918881
-0.913993
-0.909014
-0.903945
-0.89879
-0.89355
-0.888229
-0.882827
-0.877347
-0.871793
-0.866164
-0.860465
-0.854697
-0.848862
-0.842962
-0.836999
-0.830975
-0.82489
-0.818747
-0.812546
-0.806289
-0.799978
-0.793612
-0.787192
-0.78072
-0.774195
-0.767619
-0.760991
-0.754312
-0.747581
-0.7408
-0.733967
-0.727083
-0.720148
-0.713161
-0.706122
-0.699031
-0.691888
-0.684692
-0.677442
-0.670138
-0.66278
-0.655367
-0.647899
-0.640375
-0.632795
-0.625157
-0.617462
-0.60971
-0.601899
-0.594029
-0.5861
-0.578112
-0.570064
-0.561956
-0.553787
-0.545559
-0.53727
-0.528921
-0.520514
-0.512047
-0.503523
-0.494942
-0.486307
-0.477621
-0.468889
-0.460108
-0.45127
-0.442589
-1.31081
-1.31082
-1.31094
-1.31121
-1.31162
-1.31217
-1.31283
-1.31361
-1.31447
-1.31539
-1.31636
-1.31736
-1.31839
-1.31942
-1.32047
-1.32155
-1.32267
-1.32387
-1.3252
-1.32669
-1.32842
-1.33044
-1.33283
-1.33566
-1.339
-1.34289
-1.34738
-1.35249
-1.3582
-1.36447
-1.37125
-1.37842
-1.38587
-1.39346
-1.40103
-1.40842
-1.41545
-1.42198
-1.42785
-1.43292
-1.43706
-1.44018
-1.44217
-1.44297
-1.44252
-1.44079
-1.43776
-1.43342
-1.42778
-1.42086
-1.41269
-1.40334
-1.39284
-1.38126
-1.36867
-1.35515
-1.34077
-1.32563
-1.30983
-1.29349
-1.27673
-1.25969
-1.24251
-1.22536
-1.20838
-1.19173
-1.17557
-1.16003
-1.14523
-1.13125
-1.11817
-1.10602
-1.09483
-1.08459
-1.07527
-1.06682
-1.05919
-1.0523
-1.04609
-1.04048
-1.0354
-1.03077
-1.02652
-1.02259
-1.01892
-1.01546
-1.01215
-1.00896
-1.00585
-1.00278
-0.999726
-0.996667
-0.99358
-0.99045
-0.987262
-0.984004
-0.980669
-0.977247
-0.973735
-0.970127
-0.966421
-0.962614
-0.958704
-0.954692
-0.950577
-0.946359
-0.94204
-0.93762
-0.933101
-0.928484
-0.923771
-0.918964
-0.914065
-0.909075
-0.903998
-0.898835
-0.893588
-0.888259
-0.882852
-0.877367
-0.871808
-0.866176
-0.860473
-0.854702
-0.848864
-0.842962
-0.836997
-0.830971
-0.824885
-0.818741
-0.812539
-0.806282
-0.79997
-0.793603
-0.787184
-0.780711
-0.774187
-0.76761
-0.760983
-0.754304
-0.747573
-0.740792
-0.73396
-0.727076
-0.720141
-0.713155
-0.706116
-0.699026
-0.691882
-0.684686
-0.677437
-0.670134
-0.662776
-0.655363
-0.647895
-0.640371
-0.632791
-0.625154
-0.617459
-0.609706
-0.601895
-0.594026
-0.586097
-0.578108
-0.57006
-0.561951
-0.553782
-0.545553
-0.537264
-0.528914
-0.520506
-0.512038
-0.503512
-0.49493
-0.486293
-0.477604
-0.468868
-0.460084
-0.451231
-0.442538
-1.30797
-1.30812
-1.30837
-1.30874
-1.30923
-1.30984
-1.31056
-1.31138
-1.31228
-1.31325
-1.31428
-1.31535
-1.31646
-1.31762
-1.31882
-1.32011
-1.32151
-1.32307
-1.32486
-1.32695
-1.32941
-1.33234
-1.3358
-1.33988
-1.34463
-1.35008
-1.35624
-1.36309
-1.37056
-1.37856
-1.38698
-1.39566
-1.40445
-1.41318
-1.42168
-1.42977
-1.43731
-1.44413
-1.45011
-1.45512
-1.45907
-1.46186
-1.46342
-1.46371
-1.4627
-1.46035
-1.45667
-1.45167
-1.44537
-1.43781
-1.42903
-1.41908
-1.40802
-1.39591
-1.38281
-1.36879
-1.35393
-1.3383
-1.322
-1.30514
-1.28782
-1.27018
-1.25236
-1.23453
-1.21684
-1.19948
-1.18259
-1.16633
-1.15083
-1.1362
-1.12251
-1.10982
-1.09814
-1.08747
-1.07777
-1.069
-1.06109
-1.05398
-1.04758
-1.04181
-1.03659
-1.03185
-1.02752
-1.02351
-1.01978
-1.01627
-1.01292
-1.00969
-1.00654
-1.00344
-1.00036
-0.997274
-0.994162
-0.991005
-0.987791
-0.984507
-0.981145
-0.977696
-0.974156
-0.97052
-0.966785
-0.96295
-0.959013
-0.954974
-0.950833
-0.94659
-0.942247
-0.937804
-0.933263
-0.928626
-0.923895
-0.91907
-0.914155
-0.909152
-0.904061
-0.898887
-0.893629
-0.888292
-0.882876
-0.877385
-0.871819
-0.866182
-0.860475
-0.854701
-0.84886
-0.842955
-0.836988
-0.83096
-0.824873
-0.818728
-0.812526
-0.806268
-0.799956
-0.793589
-0.78717
-0.780698
-0.774174
-0.767598
-0.76097
-0.754292
-0.747562
-0.740781
-0.73395
-0.727067
-0.720132
-0.713146
-0.706108
-0.699018
-0.691876
-0.68468
-0.677431
-0.670128
-0.662771
-0.655358
-0.647891
-0.640367
-0.632787
-0.62515
-0.617455
-0.609703
-0.601892
-0.594022
-0.586093
-0.578104
-0.570055
-0.561947
-0.553777
-0.545547
-0.537257
-0.528906
-0.520496
-0.512026
-0.503498
-0.494912
-0.486272
-0.477578
-0.468832
-0.460039
-0.451162
-0.442424
-1.30467
-1.30496
-1.30535
-1.3058
-1.30634
-1.30698
-1.30772
-1.30857
-1.3095
-1.31053
-1.31163
-1.31281
-1.31408
-1.31544
-1.31694
-1.3186
-1.3205
-1.32269
-1.32526
-1.32829
-1.33188
-1.3361
-1.34104
-1.34674
-1.35323
-1.3605
-1.36851
-1.37717
-1.38638
-1.396
-1.40587
-1.41582
-1.42566
-1.43524
-1.44437
-1.4529
-1.46068
-1.46758
-1.47347
-1.47827
-1.48187
-1.48423
-1.48528
-1.48498
-1.48333
-1.48031
-1.47595
-1.47026
-1.46328
-1.45506
-1.44566
-1.43513
-1.42352
-1.41091
-1.39735
-1.3829
-1.36763
-1.35159
-1.33487
-1.31756
-1.29975
-1.28156
-1.26315
-1.24466
-1.22627
-1.20817
-1.19053
-1.17351
-1.15728
-1.14195
-1.12761
-1.11432
-1.1021
-1.09095
-1.08084
-1.07172
-1.06351
-1.05613
-1.04951
-1.04356
-1.03819
-1.03332
-1.02887
-1.02478
-1.02097
-1.01738
-1.01397
-1.01069
-1.00749
-1.00435
-1.00123
-0.998102
-0.994951
-0.991756
-0.988504
-0.985182
-0.981781
-0.978293
-0.974714
-0.971039
-0.967266
-0.963392
-0.959417
-0.955341
-0.951164
-0.946887
-0.942511
-0.938037
-0.933467
-0.928803
-0.924046
-0.919199
-0.914263
-0.90924
-0.904133
-0.898943
-0.893672
-0.888323
-0.882898
-0.877397
-0.871824
-0.866181
-0.860469
-0.85469
-0.848846
-0.842939
-0.83697
-0.830941
-0.824853
-0.818707
-0.812505
-0.806247
-0.799935
-0.793569
-0.78715
-0.780679
-0.774155
-0.76758
-0.760954
-0.754276
-0.747547
-0.740767
-0.733936
-0.727054
-0.720121
-0.713136
-0.706099
-0.699009
-0.691867
-0.684673
-0.677424
-0.670121
-0.662765
-0.655353
-0.647885
-0.640362
-0.632782
-0.625145
-0.617451
-0.609698
-0.601887
-0.594018
-0.586088
-0.578099
-0.57005
-0.561941
-0.553771
-0.54554
-0.537248
-0.528896
-0.520484
-0.512011
-0.50348
-0.49489
-0.486244
-0.477541
-0.468784
-0.459974
-0.451068
-0.442272
-1.30121
-1.30164
-1.30214
-1.30265
-1.30321
-1.30385
-1.3046
-1.30545
-1.30642
-1.30751
-1.30872
-1.31007
-1.31157
-1.31327
-1.3152
-1.31744
-1.32006
-1.32313
-1.32676
-1.33104
-1.33604
-1.34185
-1.34849
-1.35599
-1.36433
-1.37344
-1.38324
-1.39358
-1.40434
-1.41533
-1.42638
-1.43731
-1.44794
-1.45811
-1.46764
-1.4764
-1.48425
-1.49107
-1.49676
-1.50124
-1.50443
-1.50628
-1.50675
-1.50582
-1.50349
-1.49977
-1.49469
-1.48828
-1.48062
-1.47174
-1.46173
-1.45063
-1.43852
-1.42546
-1.41151
-1.39671
-1.38111
-1.36478
-1.34775
-1.3301
-1.31191
-1.29329
-1.27437
-1.25531
-1.23629
-1.21749
-1.19912
-1.18136
-1.16439
-1.14834
-1.13333
-1.11942
-1.10665
-1.095
-1.08446
-1.07495
-1.06641
-1.05876
-1.0519
-1.04574
-1.0402
-1.03517
-1.0306
-1.02639
-1.02248
-1.01881
-1.01532
-1.01197
-1.00871
-1.00551
-1.00233
-0.99915
-0.995948
-0.992703
-0.9894
-0.986028
-0.982577
-0.979039
-0.975409
-0.971684
-0.967861
-0.963938
-0.959915
-0.955792
-0.95157
-0.947249
-0.942832
-0.938319
-0.933712
-0.929014
-0.924226
-0.91935
-0.914387
-0.909341
-0.904212
-0.899004
-0.893716
-0.888353
-0.882915
-0.877404
-0.871822
-0.866171
-0.860453
-0.85467
-0.848822
-0.842912
-0.836941
-0.830911
-0.824822
-0.818676
-0.812474
-0.806217
-0.799906
-0.793541
-0.787123
-0.780653
-0.774131
-0.767557
-0.760932
-0.754256
-0.747528
-0.74075
-0.73392
-0.727039
-0.720107
-0.713123
-0.706087
-0.698998
-0.691857
-0.684663
-0.677415
-0.670114
-0.662757
-0.655346
-0.647879
-0.640356
-0.632777
-0.62514
-0.617446
-0.609694
-0.601883
-0.594013
-0.586083
-0.578094
-0.570045
-0.561935
-0.553764
-0.545532
-0.537239
-0.528885
-0.52047
-0.511994
-0.503459
-0.494864
-0.486209
-0.477497
-0.468724
-0.459894
-0.450958
-0.442101
-1.29798
-1.29852
-1.29911
-1.29965
-1.3002
-1.30083
-1.30157
-1.30244
-1.30346
-1.30464
-1.306
-1.30758
-1.30942
-1.31157
-1.31409
-1.31706
-1.32059
-1.32474
-1.32963
-1.33532
-1.34189
-1.34937
-1.35776
-1.36704
-1.37712
-1.38792
-1.39929
-1.41108
-1.4231
-1.43519
-1.44716
-1.45883
-1.47002
-1.48057
-1.49034
-1.49919
-1.507
-1.51365
-1.51906
-1.52316
-1.52588
-1.52718
-1.52705
-1.52546
-1.52244
-1.518
-1.51219
-1.50508
-1.49672
-1.4872
-1.47658
-1.46494
-1.45236
-1.43889
-1.4246
-1.40953
-1.39372
-1.37719
-1.35998
-1.34214
-1.32372
-1.3048
-1.28552
-1.266
-1.24645
-1.22705
-1.20802
-1.18958
-1.17191
-1.15518
-1.13952
-1.12501
-1.11168
-1.09954
-1.08855
-1.07866
-1.06978
-1.06183
-1.05472
-1.04834
-1.0426
-1.03741
-1.03268
-1.02834
-1.02431
-1.02054
-1.01696
-1.01352
-1.01018
-1.00691
-1.00366
-1.00042
-0.997148
-0.99384
-0.990474
-0.98704
-0.983527
-0.979927
-0.976237
-0.972451
-0.968567
-0.964585
-0.960505
-0.956326
-0.952049
-0.947677
-0.94321
-0.938651
-0.934
-0.929261
-0.924435
-0.919524
-0.914531
-0.909456
-0.904302
-0.899071
-0.893764
-0.888383
-0.88293
-0.877406
-0.871814
-0.866155
-0.86043
-0.854641
-0.848789
-0.842876
-0.836903
-0.830871
-0.824782
-0.818636
-0.812435
-0.806179
-0.799868
-0.793505
-0.787089
-0.780621
-0.7741
-0.767528
-0.760905
-0.754231
-0.747505
-0.740728
-0.7339
-0.727021
-0.72009
-0.713107
-0.706072
-0.698985
-0.691845
-0.684652
-0.677406
-0.670105
-0.662749
-0.655338
-0.647872
-0.64035
-0.632771
-0.625134
-0.61744
-0.609688
-0.601878
-0.594008
-0.586078
-0.578089
-0.570039
-0.561928
-0.553756
-0.545523
-0.537228
-0.528872
-0.520455
-0.511975
-0.503435
-0.494833
-0.48617
-0.477446
-0.468656
-0.459803
-0.450839
-0.441922
-1.2954
-1.29603
-1.29667
-1.29722
-1.29776
-1.29837
-1.29911
-1.3
-1.30109
-1.3024
-1.30397
-1.30585
-1.3081
-1.31079
-1.314
-1.31782
-1.32234
-1.32767
-1.33387
-1.34101
-1.34912
-1.35819
-1.3682
-1.37907
-1.39069
-1.40291
-1.41558
-1.42853
-1.44156
-1.45449
-1.46714
-1.47934
-1.49092
-1.50173
-1.51161
-1.52046
-1.52814
-1.53457
-1.53967
-1.54336
-1.5456
-1.54636
-1.54563
-1.5434
-1.5397
-1.53456
-1.52806
-1.52025
-1.51122
-1.50105
-1.48984
-1.47767
-1.46463
-1.45079
-1.43621
-1.42092
-1.40496
-1.38834
-1.37106
-1.35315
-1.33464
-1.31558
-1.29608
-1.27627
-1.25632
-1.23645
-1.21689
-1.19786
-1.17959
-1.16225
-1.146
-1.13092
-1.11708
-1.10446
-1.09305
-1.08278
-1.07357
-1.06533
-1.05795
-1.05133
-1.04539
-1.04001
-1.03512
-1.03063
-1.02648
-1.02258
-1.01889
-1.01535
-1.01192
-1.00855
-1.00522
-1.00189
-0.998547
-0.995161
-0.99172
-0.988211
-0.984624
-0.980952
-0.977189
-0.973332
-0.969379
-0.965328
-0.961181
-0.956938
-0.952599
-0.948167
-0.943644
-0.939031
-0.93433
-0.929544
-0.924675
-0.919725
-0.914695
-0.909587
-0.904404
-0.899147
-0.893817
-0.888416
-0.882946
-0.877408
-0.871804
-0.866134
-0.860401
-0.854606
-0.848749
-0.842832
-0.836857
-0.830824
-0.824734
-0.818589
-0.812388
-0.806133
-0.799824
-0.793463
-0.787049
-0.780582
-0.774064
-0.767495
-0.760874
-0.754201
-0.747478
-0.740703
-0.733877
-0.726999
-0.72007
-0.713089
-0.706056
-0.69897
-0.691832
-0.68464
-0.677394
-0.670094
-0.66274
-0.65533
-0.647864
-0.640342
-0.632764
-0.625128
-0.617434
-0.609683
-0.601872
-0.594002
-0.586072
-0.578082
-0.570032
-0.561921
-0.553748
-0.545513
-0.537217
-0.528859
-0.520438
-0.511954
-0.503409
-0.4948
-0.486127
-0.47739
-0.468583
-0.459707
-0.450717
-0.441744
-1.29388
-1.29454
-1.2952
-1.29574
-1.29626
-1.29686
-1.29762
-1.29856
-1.29975
-1.30122
-1.30303
-1.30525
-1.30796
-1.31123
-1.31515
-1.31984
-1.32537
-1.33182
-1.33927
-1.34774
-1.35722
-1.3677
-1.37908
-1.39127
-1.40412
-1.41748
-1.43117
-1.445
-1.45878
-1.47234
-1.48549
-1.49807
-1.5099
-1.52085
-1.53077
-1.53956
-1.54709
-1.55328
-1.55806
-1.56137
-1.56317
-1.56343
-1.56215
-1.55933
-1.55501
-1.54923
-1.54207
-1.5336
-1.52392
-1.51313
-1.50134
-1.48865
-1.47517
-1.46097
-1.44612
-1.43066
-1.4146
-1.39794
-1.38068
-1.3628
-1.34432
-1.32525
-1.30568
-1.28572
-1.26554
-1.24535
-1.2254
-1.20592
-1.18716
-1.16932
-1.15256
-1.13701
-1.12271
-1.10968
-1.09788
-1.08726
-1.07773
-1.0692
-1.06156
-1.05471
-1.04855
-1.04298
-1.03792
-1.03327
-1.02896
-1.02493
-1.02111
-1.01745
-1.01391
-1.01044
-1.00701
-1.00358
-1.00014
-0.996663
-0.993133
-0.989536
-0.985863
-0.982106
-0.97826
-0.974322
-0.970289
-0.966161
-0.961939
-0.957622
-0.953214
-0.948716
-0.944129
-0.939457
-0.9347
-0.929863
-0.924946
-0.919951
-0.914881
-0.909737
-0.904521
-0.899234
-0.893879
-0.888456
-0.882966
-0.877412
-0.871793
-0.866112
-0.86037
-0.854567
-0.848705
-0.842784
-0.836806
-0.830771
-0.824681
-0.818535
-0.812335
-0.806081
-0.799775
-0.793415
-0.787003
-0.780539
-0.774023
-0.767456
-0.760838
-0.754168
-0.747447
-0.740674
-0.733851
-0.726975
-0.720048
-0.713069
-0.706038
-0.698954
-0.691816
-0.684626
-0.677381
-0.670083
-0.662729
-0.65532
-0.647855
-0.640334
-0.632756
-0.625121
-0.617428
-0.609676
-0.601866
-0.593996
-0.586066
-0.578076
-0.570025
-0.561913
-0.553739
-0.545503
-0.537205
-0.528844
-0.52042
-0.511932
-0.503381
-0.494764
-0.486082
-0.477332
-0.468508
-0.45961
-0.450596
-0.441573
-1.29367
-1.29434
-1.29498
-1.2955
-1.296
-1.29661
-1.29739
-1.2984
-1.2997
-1.30135
-1.30342
-1.30599
-1.30914
-1.31297
-1.31757
-1.32304
-1.32947
-1.33692
-1.34542
-1.355
-1.36561
-1.3772
-1.38966
-1.40286
-1.41664
-1.43084
-1.44527
-1.45974
-1.47406
-1.48806
-1.50155
-1.51437
-1.52636
-1.53738
-1.5473
-1.55599
-1.56337
-1.56935
-1.57385
-1.57683
-1.57825
-1.57808
-1.57633
-1.57301
-1.56813
-1.56179
-1.55404
-1.54496
-1.53468
-1.52331
-1.51098
-1.49781
-1.48392
-1.46939
-1.45429
-1.43867
-1.42255
-1.4059
-1.3887
-1.37093
-1.35255
-1.33357
-1.31405
-1.29407
-1.2738
-1.25345
-1.23325
-1.21347
-1.19437
-1.17617
-1.15905
-1.14312
-1.12846
-1.11509
-1.10296
-1.09204
-1.08222
-1.07342
-1.06554
-1.05846
-1.05208
-1.04631
-1.04106
-1.03623
-1.03176
-1.02758
-1.02362
-1.01983
-1.01615
-1.01256
-1.00901
-1.00547
-1.00193
-0.998342
-0.994709
-0.991011
-0.987239
-0.983386
-0.979445
-0.975415
-0.971292
-0.967078
-0.962772
-0.958375
-0.95389
-0.949319
-0.944663
-0.939925
-0.935108
-0.930214
-0.925245
-0.920202
-0.915088
-0.909904
-0.904653
-0.899334
-0.893951
-0.888503
-0.882992
-0.877419
-0.871785
-0.866091
-0.860338
-0.854527
-0.848658
-0.842733
-0.836751
-0.830715
-0.824623
-0.818477
-0.812278
-0.806026
-0.79972
-0.793363
-0.786953
-0.780492
-0.773979
-0.767414
-0.760798
-0.754131
-0.747413
-0.740643
-0.733822
-0.726949
-0.720024
-0.713047
-0.706017
-0.698935
-0.691799
-0.68461
-0.677367
-0.67007
-0.662717
-0.65531
-0.647846
-0.640325
-0.632748
-0.625113
-0.617421
-0.609669
-0.601859
-0.593989
-0.586059
-0.578069
-0.570018
-0.561905
-0.55373
-0.545493
-0.537192
-0.528829
-0.520401
-0.511909
-0.503352
-0.494728
-0.486036
-0.477273
-0.468433
-0.459513
-0.45048
-0.441413
-1.29491
-1.29554
-1.29614
-1.29662
-1.29712
-1.29773
-1.29854
-1.29962
-1.30104
-1.30286
-1.30516
-1.30803
-1.31157
-1.31587
-1.32104
-1.32715
-1.33429
-1.34251
-1.35183
-1.36223
-1.37366
-1.38604
-1.39926
-1.41316
-1.42758
-1.44234
-1.45726
-1.47214
-1.48681
-1.50108
-1.51478
-1.52774
-1.53981
-1.55085
-1.56073
-1.56934
-1.57659
-1.58238
-1.58666
-1.58937
-1.59049
-1.58998
-1.58785
-1.5841
-1.57878
-1.57196
-1.56371
-1.55412
-1.54332
-1.53145
-1.51866
-1.50507
-1.49081
-1.476
-1.4607
-1.44496
-1.4288
-1.41219
-1.39509
-1.37746
-1.35924
-1.34042
-1.32103
-1.30115
-1.28091
-1.26054
-1.24027
-1.22036
-1.20109
-1.18268
-1.16533
-1.14916
-1.13425
-1.12062
-1.10824
-1.09706
-1.087
-1.07797
-1.06985
-1.06255
-1.05596
-1.04998
-1.04454
-1.03953
-1.03488
-1.03053
-1.02641
-1.02247
-1.01866
-1.01492
-1.01124
-1.00758
-1.0039
-1.0002
-0.996445
-0.992632
-0.988748
-0.984786
-0.980739
-0.976606
-0.972384
-0.968073
-0.963675
-0.959191
-0.954622
-0.949971
-0.94524
-0.940433
-0.93555
-0.930595
-0.92557
-0.920476
-0.915315
-0.910089
-0.904799
-0.899447
-0.894033
-0.888558
-0.883024
-0.877432
-0.871781
-0.866073
-0.860309
-0.854488
-0.848612
-0.842681
-0.836696
-0.830656
-0.824563
-0.818417
-0.812218
-0.805967
-0.799663
-0.793308
-0.7869
-0.780441
-0.773931
-0.767369
-0.760756
-0.754092
-0.747376
-0.740609
-0.73379
-0.72692
-0.719997
-0.713022
-0.705995
-0.698915
-0.691781
-0.684594
-0.677352
-0.670056
-0.662705
-0.655298
-0.647835
-0.640316
-0.632739
-0.625105
-0.617413
-0.609662
-0.601852
-0.593982
-0.586052
-0.578062
-0.57001
-0.561896
-0.55372
-0.545481
-0.537179
-0.528813
-0.520382
-0.511886
-0.503322
-0.494691
-0.485989
-0.477214
-0.468359
-0.459421
-0.45037
-0.441267
-1.29756
-1.2981
-1.29864
-1.29908
-1.29955
-1.30017
-1.30101
-1.30215
-1.30365
-1.3056
-1.30808
-1.31117
-1.31499
-1.31963
-1.32518
-1.33174
-1.33936
-1.34809
-1.35792
-1.36884
-1.38079
-1.39365
-1.40731
-1.42161
-1.43638
-1.45145
-1.46663
-1.48174
-1.49658
-1.51098
-1.52476
-1.53777
-1.54985
-1.56087
-1.57069
-1.57922
-1.58634
-1.59199
-1.5961
-1.59861
-1.59949
-1.59872
-1.59629
-1.59222
-1.58656
-1.57937
-1.57071
-1.56072
-1.54953
-1.53728
-1.52413
-1.51023
-1.49572
-1.48071
-1.46528
-1.44949
-1.43334
-1.41681
-1.39985
-1.38239
-1.36437
-1.34577
-1.32659
-1.30689
-1.28681
-1.26655
-1.24635
-1.22648
-1.2072
-1.18874
-1.17131
-1.15504
-1.13999
-1.12621
-1.11367
-1.1023
-1.09205
-1.08281
-1.07449
-1.06697
-1.06018
-1.054
-1.04836
-1.04316
-1.03833
-1.0338
-1.0295
-1.0254
-1.02142
-1.01753
-1.0137
-1.00989
-1.00607
-1.00223
-0.998342
-0.994399
-0.990389
-0.986303
-0.982138