/*--------------------------------*- C++ -*----------------------------------*\
  =========                 |
  \\      /  F ield         | OpenFOAM: The Open Source CFD Toolbox
   \\    /   O peration     | Website:  https://openfoam.org
    \\  /    A nd           | Version:  8
     \\/     M anipulation  |
\*---------------------------------------------------------------------------*/
FoamFile
{
    version     2.0;
    format      ascii;
    class       surfaceScalarField;
    location    "0.26";
    object      phi;
}
// * * * * * * * * * * * * * * * * * * * * * * * * * * * * * * * * * * * * * //

dimensions      [0 3 -1 0 0 0 0];

internalField   nonuniform List<scalar> 
24170
(
1.4065e-08
3.86823e-08
5.17199e-09
8.89301e-09
2.56976e-09
2.60222e-09
1.13832e-09
1.43144e-09
1.11659e-10
1.02666e-09
-6.79666e-10
7.91325e-10
-1.33251e-09
6.52849e-10
-1.89404e-09
5.61521e-10
-2.38908e-09
4.95043e-10
-2.83165e-09
4.42568e-10
-3.22751e-09
3.95862e-10
-3.57295e-09
3.4544e-10
-3.85054e-09
2.77592e-10
-4.02417e-09
1.73626e-10
-4.0602e-09
3.60365e-11
-4.04394e-09
-1.62648e-11
-4.64169e-09
5.97752e-10
9.14898e-09
-1.37907e-08
3.43964e-08
6.0819e-08
1.83589e-08
2.49305e-08
1.0627e-08
1.03341e-08
6.1794e-09
5.87906e-09
2.97711e-09
4.22895e-09
4.6543e-10
3.303e-09
-1.61545e-09
2.73373e-09
-3.41344e-09
2.35951e-09
-5.0074e-09
2.08901e-09
-6.44269e-09
1.87786e-09
-7.74059e-09
1.69376e-09
-8.89742e-09
1.50227e-09
-9.87873e-09
1.25891e-09
-1.06199e-08
9.14817e-10
-1.10894e-08
5.05491e-10
-1.15847e-08
4.79055e-10
-1.37432e-08
2.75627e-09
1.68711e-08
-2.14653e-08
5.08038e-08
7.0606e-08
3.38601e-08
4.18742e-08
2.20667e-08
2.21275e-08
1.45039e-08
1.34419e-08
8.97994e-09
9.7529e-09
4.58242e-09
7.70052e-09
9.07622e-10
6.40853e-09
-2.28601e-09
5.55314e-09
-5.13421e-09
4.9372e-09
-7.71751e-09
4.46116e-09
-1.00781e-08
4.05433e-09
-1.22221e-08
3.64632e-09
-1.41192e-08
3.15602e-09
-1.57177e-08
2.51325e-09
-1.70491e-08
1.83689e-09
-1.85931e-08
2.02305e-09
-2.18971e-08
6.06035e-09
2.2847e-08
-2.7873e-08
6.42755e-08
7.12701e-08
5.00439e-08
5.61058e-08
3.63938e-08
3.57776e-08
2.62008e-08
2.36349e-08
1.84374e-08
1.75163e-08
1.21337e-08
1.40042e-08
6.79437e-09
1.17479e-08
2.11324e-09
1.02343e-08
-2.09412e-09
9.14456e-09
-5.94097e-09
8.308e-09
-9.49414e-09
7.6075e-09
-1.27803e-08
6.93247e-09
-1.57934e-08
6.16916e-09
-1.85253e-08
5.24513e-09
-2.10823e-08
4.39389e-09
-2.39445e-08
4.88526e-09
-2.80384e-08
1.01542e-08
2.74912e-08
-3.26827e-08
7.50138e-08
6.58567e-08
6.56212e-08
6.54985e-08
5.25637e-08
4.88351e-08
4.09078e-08
3.52908e-08
3.13524e-08
2.70717e-08
2.33402e-08
2.20163e-08
1.64171e-08
1.8671e-08
1.02677e-08
1.63836e-08
4.68207e-09
1.47302e-08
-4.76937e-10
1.3467e-08
-5.29717e-09
1.24277e-08
-9.83347e-09
1.14688e-08
-1.41178e-08
1.04535e-08
-1.81998e-08
9.32708e-09
-2.22297e-08
8.42383e-09
-2.65419e-08
9.19743e-09
-3.13859e-08
1.49982e-08
3.13878e-08
-3.52825e-08
8.33812e-08
5.70714e-08
7.95067e-08
6.9373e-08
6.91828e-08
5.91589e-08
5.77226e-08
4.67511e-08
4.72728e-08
3.75215e-08
3.80484e-08
3.12408e-08
2.98364e-08
2.6883e-08
2.23999e-08
2.38201e-08
1.55456e-08
2.15846e-08
9.13298e-09
1.98796e-08
3.05897e-09
1.85017e-08
-2.7549e-09
1.72826e-08
-8.3817e-09
1.60803e-08
-1.39228e-08
1.48682e-08
-1.95359e-08
1.40369e-08
-2.5353e-08
1.50146e-08
-3.10758e-08
2.0721e-08
3.52069e-08
-3.48949e-08
8.99362e-08
4.70852e-08
9.10548e-08
6.82543e-08
8.48136e-08
6.54002e-08
7.52847e-08
5.62799e-08
6.52211e-08
4.75851e-08
5.56229e-08
4.0839e-08
4.66853e-08
3.58206e-08
3.83563e-08
3.21491e-08
3.05189e-08
2.9422e-08
2.30608e-08
2.73377e-08
1.58829e-08
2.56796e-08
8.89175e-09
2.42738e-08
1.98254e-09
2.29895e-08
-4.97729e-09
2.1828e-08
-1.21207e-08
2.11803e-08
-1.93985e-08
2.22924e-08
-2.61579e-08
2.74804e-08
3.95764e-08
-3.05275e-08
9.53487e-08
3.74247e-08
1.00174e-07
6.34289e-08
9.83445e-08
6.72299e-08
9.20626e-08
6.25618e-08
8.37707e-08
5.58769e-08
7.49051e-08
4.97046e-08
6.60768e-08
4.46489e-08
5.74904e-08
4.07356e-08
4.91662e-08
3.77461e-08
4.10597e-08
3.54442e-08
3.31012e-08
3.36381e-08
2.52024e-08
3.21726e-08
1.72494e-08
3.09425e-08
9.10532e-09
2.99721e-08
6.75302e-10
2.96103e-08
-7.86642e-09
3.08341e-08
-1.57071e-08
3.5321e-08
4.4944e-08
-2.10746e-08
1.00278e-07
2.89854e-08
1.07263e-07
5.64435e-08
1.09262e-07
6.52305e-08
1.06769e-07
6.50551e-08
1.01339e-07
6.13073e-08
9.43442e-08
5.66991e-08
8.66258e-08
5.23672e-08
7.86201e-08
4.87414e-08
7.05107e-08
4.58555e-08
6.23522e-08
4.36027e-08
5.41318e-08
4.18585e-08
4.57917e-08
4.05128e-08
3.7236e-08
3.94982e-08
2.83517e-08
3.88563e-08
1.90935e-08
3.88686e-08
9.69828e-09
4.02294e-08
9.75643e-10
4.40437e-08
5.14494e-08
-5.52977e-09
1.05269e-07
2.21459e-08
1.13021e-07
4.86922e-08
1.17713e-07
6.05381e-08
1.18723e-07
6.40452e-08
1.16622e-07
6.3408e-08
1.12339e-07
6.0983e-08
1.06665e-07
5.80412e-08
1.00139e-07
5.5267e-08
9.3069e-08
5.29256e-08
8.56083e-08
5.10634e-08
7.78157e-08
4.96511e-08
6.96848e-08
4.86438e-08
6.11632e-08
4.80198e-08
5.2186e-08
4.78335e-08
4.27602e-08
4.82943e-08
3.3141e-08
4.98486e-08
2.40398e-08
5.31449e-08
5.8796e-08
1.66931e-08
1.10759e-07
1.68819e-08
1.18232e-07
4.12186e-08
1.24338e-07
5.44319e-08
1.27985e-07
6.03981e-08
1.28984e-07
6.24091e-08
1.27694e-07
6.22732e-08
1.24653e-07
6.10827e-08
1.20336e-07
5.95841e-08
1.15078e-07
5.81831e-08
1.0909e-07
5.70509e-08
1.02491e-07
5.62504e-08
9.53297e-08
5.58052e-08
8.76108e-08
5.57387e-08
7.93301e-08
5.61142e-08
7.05469e-08
5.70775e-08
6.151e-08
5.88856e-08
5.27905e-08
6.18644e-08
6.62773e-08
4.53093e-08
9.8596e-08
1.32593e-08
1.04071e-07
3.57436e-08
1.09423e-07
4.90802e-08
1.13744e-07
5.60769e-08
1.16415e-07
5.97377e-08
1.17389e-07
6.12998e-08
1.16895e-07
6.15761e-08
1.15205e-07
6.1274e-08
1.12547e-07
6.08416e-08
1.09091e-07
6.05069e-08
1.04954e-07
6.03869e-08
1.0021e-07
6.055e-08
9.48988e-08
6.10494e-08
8.90626e-08
6.19505e-08
8.27853e-08
6.33548e-08
7.62659e-08
6.5405e-08
6.98758e-08
6.82544e-08
7.19653e-08
6.41878e-08
1.18772e-07
1.0261e-08
1.24263e-07
3.02524e-08
1.30225e-07
4.31185e-08
1.35748e-07
5.0554e-08
1.40135e-07
5.53508e-08
1.43076e-07
5.83584e-08
1.44587e-07
6.00655e-08
1.44808e-07
6.10524e-08
1.43901e-07
6.17486e-08
1.42011e-07
6.23973e-08
1.39257e-07
6.3141e-08
1.35732e-07
6.40745e-08
1.31514e-07
6.52676e-08
1.26683e-07
6.67809e-08
1.21363e-07
6.86752e-08
1.15761e-07
7.10066e-08
1.10208e-07
7.38081e-08
7.70293e-08
1.05144e-07
1.4339e-07
8.00058e-09
1.48604e-07
2.50388e-08
1.54783e-07
3.69393e-08
1.61035e-07
4.43017e-08
1.66781e-07
4.96048e-08
1.71582e-07
5.3558e-08
1.75255e-07
5.63921e-08
1.77793e-07
5.85144e-08
1.79253e-07
6.02893e-08
1.79712e-07
6.19375e-08
1.79261e-07
6.35928e-08
1.77987e-07
6.53477e-08
1.75987e-07
6.72682e-08
1.73369e-07
6.93987e-08
1.7028e-07
7.17638e-08
1.66925e-07
7.43622e-08
1.63573e-07
7.71596e-08
8.00653e-08
1.60537e-07
1.73675e-07
6.36444e-09
1.78355e-07
2.03594e-08
1.84408e-07
3.0886e-08
1.9092e-07
3.77898e-08
1.97467e-07
4.30574e-08
2.03643e-07
4.7382e-08
2.09172e-07
5.08636e-08
2.13938e-07
5.37479e-08
2.17913e-07
5.63146e-08
2.21107e-07
5.87431e-08
2.23564e-07
6.11365e-08
2.25349e-07
6.35625e-08
2.26553e-07
6.60647e-08
2.27288e-07
6.86629e-08
2.277e-07
7.13519e-08
2.27964e-07
7.40984e-08
2.28282e-07
7.68419e-08
7.94991e-08
2.28848e-07
2.10938e-07
5.14449e-09
2.15061e-07
1.62363e-08
2.20881e-07
2.50663e-08
2.27452e-07
3.12186e-08
2.34419e-07
3.60905e-08
2.41478e-07
4.03229e-08
2.4836e-07
4.39814e-08
2.54915e-07
4.71933e-08
2.61079e-07
5.01507e-08
2.66835e-07
5.29865e-08
2.72203e-07
5.57689e-08
2.77231e-07
5.85343e-08
2.81997e-07
6.12991e-08
2.866e-07
6.40597e-08
2.9116e-07
6.67921e-08
2.95806e-07
6.94518e-08
3.0067e-07
7.19788e-08
7.43179e-08
3.05851e-07
2.56696e-07
4.09729e-09
2.60524e-07
1.24083e-08
2.66355e-07
1.92356e-08
2.73243e-07
2.43304e-08
2.80773e-07
2.85604e-08
2.887e-07
3.23962e-08
2.96794e-07
3.58873e-08
3.04903e-07
3.90848e-08
3.12958e-07
4.20955e-08
3.20947e-07
4.49978e-08
3.2889e-07
4.78252e-08
3.36838e-07
5.05863e-08
3.44861e-07
5.32762e-08
3.53044e-07
5.58774e-08
3.61475e-07
5.83602e-08
3.70243e-07
6.06845e-08
3.79417e-07
6.28049e-08
6.46959e-08
3.89039e-07
3.12761e-07
2.97585e-09
3.16908e-07
8.26183e-09
3.23509e-07
1.26343e-08
3.31551e-07
1.62889e-08
3.40474e-07
1.96372e-08
3.50014e-07
2.28557e-08
3.59952e-07
2.59498e-08
3.70115e-07
2.89216e-08
3.80418e-07
3.17929e-08
3.90841e-07
3.45749e-08
4.01405e-07
3.72609e-08
4.12156e-07
3.98351e-08
4.23155e-07
4.22776e-08
4.34468e-07
4.45643e-08
4.4616e-07
4.66683e-08
4.58283e-07
4.85606e-08
4.70874e-07
5.02144e-08
5.16264e-08
4.83943e-07
3.81422e-07
1.44751e-09
3.87218e-07
2.46565e-09
3.96331e-07
3.52128e-09
4.07304e-07
5.31558e-09
4.1941e-07
7.53098e-09
4.32316e-07
9.95013e-09
4.4573e-07
1.25359e-08
4.59417e-07
1.52343e-08
4.73251e-07
1.79593e-08
4.8719e-07
2.06358e-08
5.01239e-07
2.32113e-08
5.15429e-07
2.5646e-08
5.29799e-07
2.79071e-08
5.44397e-07
2.99669e-08
5.59262e-07
3.18028e-08
5.74425e-07
3.33972e-08
5.89902e-07
3.47382e-08
3.5835e-08
6.05693e-07
2.80098e-07
-5.43099e-10
2.86092e-07
-3.52862e-09
2.94882e-07
-5.26805e-09
3.05163e-07
-4.96556e-09
3.16222e-07
-3.52871e-09
3.27678e-07
-1.50588e-09
3.3926e-07
9.54842e-10
3.50797e-07
3.69708e-09
3.62209e-07
6.5466e-09
3.7348e-07
9.3654e-09
3.84622e-07
1.20688e-08
3.95667e-07
1.46015e-08
4.0665e-07
1.69242e-08
4.17607e-07
1.90096e-08
4.28569e-07
2.08405e-08
4.39559e-07
2.24078e-08
4.50588e-07
2.37092e-08
2.47581e-08
4.61664e-07
2.45011e-07
-3.44712e-09
2.52918e-07
-1.14362e-08
2.63478e-07
-1.58278e-08
2.75102e-07
-1.65895e-08
2.87047e-07
-1.54741e-08
2.98876e-07
-1.3335e-08
3.10326e-07
-1.04946e-08
3.2129e-07
-7.26703e-09
3.31776e-07
-3.93935e-09
3.41839e-07
-6.98046e-10
3.51554e-07
2.35391e-09
3.60996e-07
5.15928e-09
3.70232e-07
7.68875e-09
3.79318e-07
9.92347e-09
3.88299e-07
1.18599e-08
3.97206e-07
1.35001e-08
4.06062e-07
1.48537e-08
1.59386e-08
4.14881e-07
2.15357e-07
-8.0384e-09
2.26033e-07
-2.21117e-08
2.38618e-07
-2.8413e-08
2.51231e-07
-2.92026e-08
2.63146e-07
-2.73894e-08
2.73999e-07
-2.41877e-08
2.83724e-07
-2.02197e-08
2.92461e-07
-1.6004e-08
3.00417e-07
-1.18948e-08
3.07788e-07
-8.06968e-09
3.14742e-07
-4.59998e-09
3.21411e-07
-1.50949e-09
3.27901e-07
1.19896e-09
3.34285e-07
3.53875e-09
3.40612e-07
5.53307e-09
3.46913e-07
7.1992e-09
3.53203e-07
8.56345e-09
9.64974e-09
3.59492e-07
1.90835e-07
-1.53906e-08
2.04456e-07
-3.57332e-08
2.17855e-07
-4.18122e-08
2.29268e-07
-4.06151e-08
2.38367e-07
-3.64887e-08
2.45343e-07
-3.11632e-08
2.50696e-07
-2.55729e-08
2.5497e-07
-2.02777e-08
2.58601e-07
-1.55265e-08
2.61902e-07
-1.13699e-08
2.65078e-07
-7.77619e-09
2.68262e-07
-4.69384e-09
2.71531e-07
-2.06992e-09
2.74924e-07
1.45858e-10
2.78458e-07
1.99858e-09
2.8213e-07
3.52759e-09
2.85926e-07
4.76759e-09
5.74884e-09
2.89827e-07
1.70718e-07
-2.6378e-08
1.85638e-07
-5.06529e-08
1.96396e-07
-5.25698e-08
2.02629e-07
-4.68487e-08
2.05352e-07
-3.92112e-08
2.05861e-07
-3.16726e-08
2.05279e-07
-2.4991e-08
2.04352e-07
-1.93508e-08
2.03509e-07
-1.46829e-08
2.02968e-07
-1.08294e-08
2.02829e-07
-7.63655e-09
2.03118e-07
-4.98373e-09
2.03828e-07
-2.77929e-09
2.04926e-07
-9.51928e-10
2.06369e-07
5.54666e-10
2.08111e-07
1.7856e-09
2.10102e-07
2.77729e-09
3.5603e-09
2.1229e-07
1.53337e-07
-4.06615e-08
1.65374e-07
-6.26902e-08
1.68772e-07
-5.59676e-08
1.66521e-07
-4.45974e-08
1.61559e-07
-3.42491e-08
1.55936e-07
-2.60499e-08
1.507e-07
-1.97549e-08
1.46259e-07
-1.49093e-08
1.42714e-07
-1.11382e-08
1.40036e-07
-8.15124e-09
1.38145e-07
-5.74604e-09
1.3695e-07
-3.78872e-09
1.36358e-07
-2.18743e-09
1.36282e-07
-8.75788e-10
1.36641e-07
1.95825e-10
1.37361e-07
1.0657e-09
1.38374e-07
1.7642e-09
2.31672e-09
1.39618e-07
1.36003e-07
-5.56115e-08
1.39607e-07
-6.62942e-08
1.32819e-07
-4.91789e-08
1.22591e-07
-3.43696e-08
1.12551e-07
-2.42088e-08
1.04032e-07
-1.75313e-08
9.71838e-08
-1.29067e-08
9.18222e-08
-9.54773e-09
8.77142e-08
-7.03019e-09
8.46463e-08
-5.08341e-09
8.2441e-08
-3.54068e-09
8.09522e-08
-2.29991e-09
8.00586e-08
-1.29384e-09
7.96581e-08
-4.75348e-10
7.9664e-08
1.89956e-10
8.00017e-08
7.28028e-10
8.06056e-08
1.16026e-09
1.50433e-09
8.1418e-08
1.15773e-07
-6.6002e-08
1.07176e-07
-5.76972e-08
9.2103e-08
-3.41055e-08
7.84426e-08
-2.07093e-08
6.78451e-08
-1.36113e-08
5.98855e-08
-9.5717e-09
5.3888e-08
-6.90918e-09
4.93722e-08
-5.03194e-09
4.59979e-08
-3.65586e-09
4.35196e-08
-2.60514e-09
4.17581e-08
-1.7792e-09
4.05771e-08
-1.11892e-09
3.98693e-08
-5.85965e-10
3.95478e-08
-1.53878e-10
3.95411e-08
1.96629e-10
3.97896e-08
4.79544e-10
4.02421e-08
7.07781e-10
8.92324e-10
4.08541e-08
9.06606e-08
-6.49214e-08
7.10425e-08
-3.80791e-08
5.38292e-08
-1.68922e-08
4.20746e-08
-8.95464e-09
3.41365e-08
-5.67316e-09
2.84994e-08
-3.93458e-09
2.43853e-08
-2.7951e-09
2.13615e-08
-2.00813e-09
1.9145e-08
-1.43942e-09
1.75474e-08
-1.00751e-09
1.64373e-08
-6.69084e-10
1.57176e-08
-3.99223e-10
1.53134e-08
-1.81778e-10
1.51651e-08
-5.62489e-12
1.52246e-08
1.37155e-10
1.54517e-08
2.52492e-10
1.58133e-08
3.46159e-10
4.25089e-10
1.62805e-08
6.02689e-08
-4.53249e-08
3.66763e-08
-1.44864e-08
2.41531e-08
-4.36898e-09
1.7242e-08
-2.04358e-09
1.28609e-08
-1.29208e-09
9.812e-09
-8.8567e-10
7.63474e-09
-6.17844e-10
6.06406e-09
-4.3744e-10
4.93285e-09
-3.08213e-10
4.13545e-09
-2.10111e-10
3.59962e-09
-1.33262e-10
3.2724e-09
-7.19952e-11
3.11329e-09
-2.267e-11
3.09019e-09
1.74765e-11
3.17748e-09
4.98665e-11
3.35379e-09
7.61764e-11
3.60229e-09
9.76556e-11
1.17867e-10
3.90952e-09
2.42019e-08
9.71548e-09
5.3465e-09
3.30292e-09
2.01084e-09
1.12517e-09
5.07326e-10
6.98859e-11
-2.38327e-10
-4.48438e-10
-5.817e-10
-6.53695e-10
-6.76365e-10
-6.58889e-10
-6.09023e-10
-5.32846e-10
-4.3519e-10
-3.17324e-10
3.05753e-10
-3.05753e-10
1.35208e-09
-1.04632e-09
3.05472e-09
-1.70264e-09
5.2316e-09
-2.17688e-09
7.69125e-09
-2.45965e-09
1.02584e-08
-2.56717e-09
1.27849e-08
-2.52651e-09
1.5154e-08
-2.36903e-09
1.72801e-08
-2.12613e-09
1.91067e-08
-1.82658e-09
2.06017e-08
-1.49507e-09
2.17534e-08
-1.15163e-09
2.2565e-08
-8.11588e-10
2.30507e-08
-4.85786e-10
2.32316e-08
-1.80816e-10
2.31301e-08
1.01416e-10
2.2769e-08
3.6117e-10
2.21653e-08
6.03718e-10
2.1329e-08
8.36257e-10
2.02605e-08
1.06851e-09
1.89484e-08
1.31214e-09
1.73685e-08
1.57983e-09
1.54845e-08
1.88397e-09
1.32494e-08
2.23513e-09
1.06065e-08
2.64288e-09
7.49269e-09
3.11384e-09
3.84134e-09
3.65136e-09
-4.14603e-10
4.25594e-09
-5.34145e-09
4.92685e-09
-1.10003e-08
5.65883e-09
-1.74421e-08
6.44183e-09
-2.47068e-08
7.26463e-09
-3.28198e-08
8.11303e-09
-4.17899e-08
8.97013e-09
-5.16066e-08
9.81668e-09
-6.22382e-08
1.06316e-08
-7.3631e-08
1.13928e-08
-8.57087e-08
1.20777e-08
-9.8373e-08
1.26643e-08
-1.11505e-07
1.31324e-08
-1.24969e-07
1.3464e-08
-1.38614e-07
1.36446e-08
-1.52277e-07
1.36635e-08
-1.65792e-07
1.35142e-08
-1.78987e-07
1.31949e-08
-1.91694e-07
1.27077e-08
-2.03753e-07
1.20588e-08
-2.15011e-07
1.12577e-08
-2.25328e-07
1.03167e-08
-2.34577e-07
9.24987e-09
-2.4265e-07
8.0729e-09
-2.49452e-07
6.80202e-09
-2.54908e-07
5.45568e-09
-2.5896e-07
4.0516e-09
-2.61564e-07
2.60441e-09
-2.62691e-07
1.12702e-09
-2.6233e-07
-3.61185e-10
-2.60498e-07
-1.83224e-09
-2.57233e-07
-3.26447e-09
-2.52593e-07
-4.64039e-09
-2.4665e-07
-5.94247e-09
-2.39497e-07
-7.15328e-09
-2.31241e-07
-8.25603e-09
-2.22006e-07
-9.23513e-09
-2.11929e-07
-1.00769e-08
-2.01159e-07
-1.077e-08
-1.89853e-07
-1.13065e-08
-1.78171e-07
-1.16818e-08
-1.66275e-07
-1.18955e-08
-1.54324e-07
-1.19511e-08
-1.42468e-07
-1.18562e-08
-1.30846e-07
-1.16218e-08
-1.19584e-07
-1.12622e-08
-1.0879e-07
-1.07937e-08
-9.85558e-08
-1.02345e-08
-8.89525e-08
-9.60331e-09
-8.00335e-08
-8.91904e-09
-7.18337e-08
-8.19977e-09
-6.43714e-08
-7.46235e-09
-5.76494e-08
-6.72194e-09
-5.16577e-08
-5.99174e-09
-4.63749e-08
-5.2828e-09
-4.17708e-08
-4.60403e-09
-3.78086e-08
-3.96225e-09
-3.44463e-08
-3.36232e-09
-3.16389e-08
-2.8074e-09
-2.93397e-08
-2.29914e-09
-2.75018e-08
-1.8379e-09
-2.60788e-08
-1.42306e-09
-2.50255e-08
-1.05322e-09
-2.42991e-08
-7.264e-10
-2.38589e-08
-4.40202e-10
-2.36666e-08
-1.92295e-10
-2.369e-08
2.33825e-11
-2.38931e-08
2.03065e-10
-2.42489e-08
3.55767e-10
-2.4731e-08
4.82156e-10
-2.5316e-08
5.85028e-10
-2.59829e-08
6.66902e-10
-2.67131e-08
7.30112e-10
-2.74899e-08
7.76826e-10
-2.82989e-08
8.09041e-10
-2.91275e-08
8.28583e-10
-2.99646e-08
8.37097e-10
-3.08007e-08
8.36084e-10
-3.16276e-08
8.26899e-10
-3.24383e-08
8.10756e-10
-3.32271e-08
7.88737e-10
-3.39889e-08
7.61819e-10
-3.47198e-08
7.3087e-10
-3.54164e-08
6.96669e-10
-3.60763e-08
6.59918e-10
-3.66976e-08
6.21238e-10
-3.72788e-08
5.81177e-10
-3.7819e-08
5.40231e-10
-3.83178e-08
4.9885e-10
-3.87753e-08
4.57432e-10
-3.91916e-08
4.16328e-10
-3.95675e-08
3.75856e-10
-3.99037e-08
3.36296e-10
-4.02016e-08
2.97902e-10
-4.04625e-08
2.60888e-10
-4.0688e-08
2.25439e-10
-4.08797e-08
1.91703e-10
-4.10395e-08
1.59798e-10
-4.11693e-08
1.29806e-10
-4.12711e-08
1.01774e-10
-4.13468e-08
7.57231e-11
-4.13984e-08
5.16486e-11
-4.14279e-08
2.95037e-11
-4.14377e-08
9.7342e-12
-4.14297e-08
-7.97545e-12
-4.14041e-08
-2.55729e-11
-4.13639e-08
-4.02236e-11
-4.13106e-08
-5.33346e-11
-4.12455e-08
-6.50273e-11
-4.11702e-08
-7.53039e-11
-4.10859e-08
-8.43409e-11
-4.09937e-08
-9.22346e-11
-4.08946e-08
-9.90816e-11
-4.07896e-08
-1.04992e-10
-4.06795e-08
-1.10063e-10
-4.05651e-08
-1.14375e-10
-4.04471e-08
-1.18024e-10
-4.0326e-08
-1.21086e-10
-4.02024e-08
-1.23642e-10
-4.00766e-08
-1.25756e-10
-3.99491e-08
-1.27497e-10
-3.98202e-08
-1.28925e-10
-3.96901e-08
-1.30093e-10
-3.95591e-08
-1.3103e-10
-3.94273e-08
-1.31793e-10
-3.92949e-08
-1.32423e-10
-3.91619e-08
-1.32948e-10
-3.90285e-08
-1.33399e-10
-3.88947e-08
-1.33799e-10
-3.87606e-08
-1.34172e-10
-3.8626e-08
-1.34541e-10
-3.84911e-08
-1.34926e-10
-3.83557e-08
-1.3535e-10
-3.82199e-08
-1.35836e-10
-3.80835e-08
-1.3641e-10
-3.79464e-08
-1.37106e-10
-3.78084e-08
-1.37963e-10
-3.76694e-08
-1.39032e-10
-3.7529e-08
-1.40369e-10
-3.7387e-08
-1.42048e-10
-3.72428e-08
-1.44186e-10
-3.70959e-08
-1.46934e-10
-3.69454e-08
-1.50468e-10
-3.67903e-08
-1.5507e-10
-3.66292e-08
-1.61119e-10
-3.64601e-08
-1.69127e-10
-3.62802e-08
-1.79854e-10
-3.60853e-08
-1.94883e-10
-3.58677e-08
-2.17674e-10
-3.56062e-08
-2.61504e-10
-3.52162e-08
-3.89934e-10
-3.44335e-08
-7.82706e-10
-2.54144e-09
-3.18921e-08
9.63561e-10
-1.26931e-09
3.38615e-09
-3.46892e-09
6.88739e-09
-5.20388e-09
1.11131e-08
-6.40262e-09
1.57301e-08
-7.07663e-09
2.04425e-08
-7.27957e-09
2.50005e-08
-7.08445e-09
2.92019e-08
-6.57051e-09
3.28906e-08
-5.81475e-09
3.59507e-08
-4.88673e-09
3.83015e-08
-3.84587e-09
3.98903e-08
-2.74046e-09
4.06864e-08
-1.60766e-09
4.06746e-08
-4.7394e-10
3.9848e-08
6.45787e-10
3.82039e-08
1.74551e-09
3.57363e-08
2.82876e-09
3.24314e-08
3.90859e-09
2.8262e-08
5.00562e-09
2.31844e-08
6.14615e-09
1.71344e-08
7.36211e-09
1.00275e-08
8.68671e-09
1.76057e-09
1.01509e-08
-7.78608e-09
1.17818e-08
-1.87408e-08
1.35976e-08
-3.12316e-08
1.56046e-08
-4.53778e-08
1.77976e-08
-6.12806e-08
2.01588e-08
-7.90118e-08
2.2658e-08
-9.86053e-08
2.52523e-08
-1.20051e-07
2.78875e-08
-1.43286e-07
3.04997e-08
-1.68192e-07
3.30186e-08
-1.94591e-07
3.53699e-08
-2.22254e-07
3.74792e-08
-2.50899e-07
3.92761e-08
-2.80203e-07
4.06978e-08
-3.09818e-07
4.16919e-08
-3.39373e-07
4.22191e-08
-3.68495e-07
4.22545e-08
-3.96818e-07
4.17876e-08
-4.23995e-07
4.08217e-08
-4.49705e-07
3.93731e-08
-4.73659e-07
3.74684e-08
-4.95607e-07
3.51431e-08
-5.15339e-07
3.2439e-08
-5.32682e-07
2.94022e-08
-5.47505e-07
2.60806e-08
-5.59711e-07
2.25232e-08
-5.69239e-07
1.87779e-08
-5.76058e-07
1.48914e-08
-5.80163e-07
1.09069e-08
-5.8157e-07
6.86299e-09
-5.80327e-07
2.80866e-09
-5.765e-07
-1.22319e-09
-5.70193e-07
-5.18003e-09
-5.61528e-07
-9.02613e-09
-5.50625e-07
-1.27346e-08
-5.37615e-07
-1.62745e-08
-5.22642e-07
-1.96133e-08
-5.05867e-07
-2.27182e-08
-4.87463e-07
-2.55565e-08
-4.67623e-07
-2.80967e-08
-4.46548e-07
-3.03096e-08
-4.24456e-07
-3.21696e-08
-4.01569e-07
-3.36561e-08
-3.78121e-07
-3.47549e-08
-3.54344e-07
-3.54591e-08
-3.30469e-07
-3.57703e-08
-3.06722e-07
-3.56981e-08
-2.83317e-07
-3.52607e-08
-2.60456e-07
-3.44836e-08
-2.38319e-07
-3.33992e-08
-2.17068e-07
-3.20446e-08
-1.96841e-07
-3.04609e-08
-1.77754e-07
-2.86911e-08
-1.59894e-07
-2.67786e-08
-1.43328e-07
-2.47662e-08
-1.28096e-07
-2.26941e-08
-1.14218e-07
-2.05997e-08
-1.01693e-07
-1.85167e-08
-9.05018e-08
-1.64741e-08
-8.0609e-08
-1.44968e-08
-7.19663e-08
-1.26049e-08
-6.45143e-08
-1.08143e-08
-5.81852e-08
-9.13657e-09
-5.29047e-08
-7.57958e-09
-4.85948e-08
-6.14784e-09
-4.51749e-08
-4.84289e-09
-4.25641e-08
-3.66407e-09
-4.0682e-08
-2.60851e-09
-3.94504e-08
-1.67182e-09
-3.87944e-08
-8.48315e-10
-3.86413e-08
-1.29712e-10
-3.89255e-08
4.87264e-10
-3.95826e-08
1.01293e-09
-4.05556e-08
1.45516e-09
-4.17915e-08
1.82093e-09
-4.32421e-08
2.11744e-09
-4.48636e-08
2.35161e-09
-4.66168e-08
2.53002e-09
-4.84666e-08
2.65888e-09
-5.0382e-08
2.74396e-09
-5.23354e-08
2.79057e-09
-5.4303e-08
2.80362e-09
-5.62637e-08
2.78761e-09
-5.81995e-08
2.74662e-09
-6.00951e-08
2.68434e-09
-6.19374e-08
2.60413e-09
-6.37156e-08
2.50902e-09
-6.54207e-08
2.40175e-09
-6.70455e-08
2.28478e-09
-6.85846e-08
2.16035e-09
-7.00339e-08
2.03042e-09
-7.13904e-08
1.89679e-09
-7.26527e-08
1.76108e-09
-7.382e-08
1.62475e-09
-7.48927e-08
1.48908e-09
-7.58721e-08
1.3552e-09
-7.67599e-08
1.22414e-09
-7.75588e-08
1.09679e-09
-7.82718e-08
9.7391e-10
-7.89025e-08
8.56141e-10
-7.94548e-08
7.44003e-10
-7.99329e-08
6.379e-10
-8.03413e-08
5.38122e-10
-8.06843e-08
4.44855e-10
-8.09668e-08
3.58184e-10
-8.11933e-08
2.78111e-10
-8.13683e-08
2.0457e-10
-8.14962e-08
1.37581e-10
-8.1581e-08
7.68121e-11
-8.1628e-08
2.1442e-11
-8.16402e-08
-2.79826e-11
-8.16215e-08
-7.20657e-11
-8.15752e-08
-1.11325e-10
-8.15047e-08
-1.45807e-10
-8.14129e-08
-1.76131e-10
-8.13025e-08
-2.02638e-10
-8.11759e-08
-2.25646e-10
-8.10354e-08
-2.45515e-10
-8.08829e-08
-2.62575e-10
-8.07202e-08
-2.771e-10
-8.05488e-08
-2.89413e-10
-8.03701e-08
-2.99771e-10
-8.01853e-08
-3.08436e-10
-7.99954e-08
-3.15623e-10
-7.98014e-08
-3.2155e-10
-7.96039e-08
-3.26415e-10
-7.94036e-08
-3.30385e-10
-7.92011e-08
-3.33562e-10
-7.89967e-08
-3.36127e-10
-7.8791e-08
-3.38199e-10
-7.8584e-08
-3.39881e-10
-7.83762e-08
-3.41259e-10
-7.81675e-08
-3.42415e-10
-7.79583e-08
-3.4342e-10
-7.77485e-08
-3.44342e-10
-7.75382e-08
-3.45246e-10
-7.73273e-08
-3.46198e-10
-7.71159e-08
-3.47267e-10
-7.69038e-08
-3.48528e-10
-7.66908e-08
-3.5008e-10
-7.64767e-08
-3.52039e-10
-7.62612e-08
-3.5455e-10
-7.60438e-08
-3.57799e-10
-7.58238e-08
-3.6202e-10
-7.56004e-08
-3.67584e-10
-7.53724e-08
-3.74981e-10
-7.5138e-08
-3.84834e-10
-7.48949e-08
-3.98121e-10
-7.46399e-08
-4.16212e-10
-7.43678e-08
-4.41134e-10
-7.40716e-08
-4.76106e-10
-7.37393e-08
-5.27131e-10
-7.33498e-08
-6.07206e-10
-7.28521e-08
-7.59209e-10
-7.20994e-08
-1.14266e-09
-7.07506e-08
-2.13148e-09
-5.28271e-09
-6.80094e-08
1.20528e-09
-2.4746e-09
4.09783e-09
-6.36146e-09
8.10215e-09
-9.2082e-09
1.27487e-08
-1.10492e-08
1.76454e-08
-1.19733e-08
2.24668e-08
-1.2101e-08
2.69468e-08
-1.15644e-08
3.08706e-08
-1.04943e-08
3.40661e-08
-9.0103e-09
3.63961e-08
-7.21677e-09
3.77508e-08
-5.20049e-09
3.80411e-08
-3.0308e-09
3.71939e-08
-7.60468e-10
3.51432e-08
1.57682e-09
3.18286e-08
3.96034e-09
2.71898e-08
6.38433e-09
2.11602e-08
8.8583e-09
1.36623e-08
1.14065e-08
4.60311e-09
1.40648e-08
-6.12855e-09
1.68778e-08
-1.86611e-08
1.98946e-08
-3.31347e-08
2.31603e-08
-4.96941e-08
2.67104e-08
-6.84765e-08
3.05642e-08
-8.9598e-08
3.47191e-08
-1.13139e-07
3.9146e-08
-1.39131e-07
4.37891e-08
-1.67538e-07
4.8566e-08
-1.98251e-07
5.33713e-08
-2.3108e-07
5.80812e-08
-2.65754e-07
6.25607e-08
-3.01924e-07
6.66706e-08
-3.39182e-07
7.0276e-08
-3.77066e-07
7.32539e-08
-4.15087e-07
7.55001e-08
-4.52744e-07
7.69339e-08
-4.89548e-07
7.75014e-08
-5.25033e-07
7.71765e-08
-5.58774e-07
7.59605e-08
-5.90399e-07
7.3879e-08
-6.1959e-07
7.09789e-08
-6.46092e-07
6.73241e-08
-6.6971e-07
6.29906e-08
-6.90304e-07
5.80624e-08
-7.07788e-07
5.26273e-08
-7.22122e-07
4.67734e-08
-7.33307e-07
4.05865e-08
-7.41373e-07
3.41474e-08
-7.46382e-07
2.75317e-08
-7.48412e-07
2.08079e-08
-7.47558e-07
1.40378e-08
-7.43931e-07
7.27939e-09
-7.37623e-07
5.55287e-10
-7.2882e-07
-5.99412e-09
-7.17635e-07
-1.24089e-08
-7.04182e-07
-1.86329e-08
-6.88575e-07
-2.46331e-08
-6.70939e-07
-3.03707e-08
-6.51408e-07
-3.58051e-08
-6.30128e-07
-4.08935e-08
-6.07255e-07
-4.55913e-08
-5.82958e-07
-4.98533e-08
-5.5742e-07
-5.36349e-08
-5.30835e-07
-5.68942e-08
-5.03411e-07
-5.9594e-08
-4.75363e-07
-6.17043e-08
-4.46913e-07
-6.32047e-08
-4.18286e-07
-6.40856e-08
-3.89707e-07
-6.43496e-08
-3.61393e-07
-6.40122e-08
-3.33553e-07
-6.3101e-08
-3.06381e-07
-6.1655e-08
-2.80057e-07
-5.9723e-08
-2.5474e-07
-5.73615e-08
-2.30569e-07
-5.46324e-08
-2.07659e-07
-5.16005e-08
-1.86106e-07
-4.83317e-08
-1.65982e-07
-4.48909e-08
-1.47336e-07
-4.13399e-08
-1.30199e-07
-3.77366e-08
-1.14582e-07
-3.41337e-08
-1.00478e-07
-3.05782e-08
-8.78639e-08
-2.71108e-08
-7.67026e-08
-2.37662e-08
-6.69445e-08
-2.05725e-08
-5.85291e-08
-1.75519e-08
-5.13874e-08
-1.47214e-08
-4.5443e-08
-1.20922e-08
-4.06149e-08
-9.67099e-09
-3.6818e-08
-7.46098e-09
-3.39654e-08
-5.4611e-09
-3.19699e-08
-3.66729e-09
-3.07453e-08
-2.07293e-09
-3.0206e-08
-6.69083e-10
-3.02728e-08
5.54138e-10
-3.08657e-08
1.60582e-09
-3.19123e-08
2.50177e-09
-3.3344e-08
3.25265e-09
-3.50972e-08
3.87065e-09
-3.71134e-08
4.36776e-09
-3.9339e-08
4.75565e-09
-4.17256e-08
5.04551e-09
-4.42296e-08
5.24792e-09
-4.68119e-08
5.37282e-09
-4.94378e-08
5.42954e-09
-5.20769e-08
5.42671e-09
-5.47025e-08
5.37226e-09
-5.72916e-08
5.27346e-09
-5.98245e-08
5.13699e-09
-6.22844e-08
4.9689e-09
-6.46573e-08
4.77471e-09
-6.69321e-08
4.55951e-09
-6.90995e-08
4.32781e-09
-7.11528e-08
4.08369e-09
-7.30869e-08
3.83088e-09
-7.48986e-08
3.57276e-09
-7.65862e-08
3.31234e-09
-7.81494e-08
3.05229e-09
-7.95892e-08
2.79501e-09
-8.09077e-08
2.54262e-09
-8.21078e-08
2.29696e-09
-8.31936e-08
2.05961e-09
-8.41693e-08
1.8319e-09
-8.50402e-08
1.61489e-09
-8.58117e-08
1.40942e-09
-8.64897e-08
1.21608e-09
-8.70801e-08
1.03527e-09
-8.75891e-08
8.67191e-10
-8.80228e-08
7.11856e-10
-8.83874e-08
5.69128e-10
-8.86886e-08
4.3879e-10
-8.89322e-08
3.20387e-10
-8.91241e-08
2.13321e-10
-8.92693e-08
1.17207e-10
-8.93727e-08
3.13998e-11
-8.94388e-08
-4.52504e-11
-8.94722e-08
-1.12402e-10
-8.94767e-08
-1.71611e-10
-8.9456e-08
-2.23407e-10
-8.94132e-08
-2.68376e-10
-8.93515e-08
-3.07241e-10
-8.92734e-08
-3.4065e-10
-8.91814e-08
-3.691e-10
-8.90776e-08
-3.93246e-10
-8.89638e-08
-4.13565e-10
-8.88417e-08
-4.30566e-10
-8.87126e-08
-4.4466e-10
-8.85779e-08
-4.56268e-10
-8.84386e-08
-4.65764e-10
-8.82955e-08
-4.73482e-10
-8.81495e-08
-4.79583e-10
-8.80011e-08
-4.84441e-10
-8.78511e-08
-4.88275e-10
-8.76997e-08
-4.91273e-10
-8.75473e-08
-4.93602e-10
-8.73943e-08
-4.95411e-10
-8.72409e-08
-4.96832e-10
-8.70873e-08
-4.97989e-10
-8.69335e-08
-4.98998e-10
-8.67797e-08
-4.99972e-10
-8.6626e-08
-5.0103e-10
-8.64722e-08
-5.02305e-10
-8.63183e-08
-5.03959e-10
-8.61642e-08
-5.06192e-10
-8.60095e-08
-5.09265e-10
-8.58538e-08
-5.13502e-10
-8.56964e-08
-5.1933e-10
-8.55366e-08
-5.2743e-10
-8.53728e-08
-5.38744e-10
-8.52032e-08
-5.54453e-10
-8.50248e-08
-5.76501e-10
-8.48334e-08
-6.0766e-10
-8.46223e-08
-6.52178e-10
-8.43815e-08
-7.16952e-10
-8.40942e-08
-8.14428e-10
-8.37298e-08
-9.71628e-10
-8.32282e-08
-1.26076e-09
-8.24869e-08
-1.88404e-09
-8.1249e-08
-3.36933e-09
-7.18368e-09
-7.9348e-08
1.14677e-09
-3.62137e-09
3.79495e-09
-9.00964e-09
7.30717e-09
-1.27204e-08
1.11814e-08
-1.49234e-08
1.50246e-08
-1.58165e-08
1.85289e-08
-1.56053e-08
2.14519e-08
-1.44874e-08
2.35979e-08
-1.26403e-08
2.48041e-08
-1.02165e-08
2.49288e-08
-7.34143e-09
2.3844e-08
-4.11563e-09
2.14312e-08
-6.18001e-10
1.75705e-08
3.10023e-09
1.21464e-08
7.00092e-09
5.03952e-09
1.10672e-08
-3.87569e-09
1.52995e-08
-1.47336e-08
1.97162e-08
-2.76771e-08
2.43501e-08
-4.28574e-08
2.92451e-08
-6.04286e-08
3.4449e-08
-8.05374e-08
4.00034e-08
-1.03311e-07
4.59338e-08
-1.28839e-07
5.22386e-08
-1.57156e-07
5.88815e-08
-1.88224e-07
6.57864e-08
-2.21915e-07
7.28375e-08
-2.58009e-07
7.9883e-08
-2.96186e-07
8.67433e-08
-3.36038e-07
9.32224e-08
-3.77076e-07
9.91196e-08
-4.18759e-07
1.04243e-07
-4.6051e-07
1.08422e-07
-5.01749e-07
1.11515e-07
-5.41912e-07
1.13417e-07
-5.80477e-07
1.14066e-07
-6.16982e-07
1.13439e-07
-6.51034e-07
1.11554e-07
-6.82319e-07
1.08462e-07
-7.10603e-07
1.04244e-07
-7.35725e-07
9.90013e-08
-7.57597e-07
9.28506e-08
-7.76189e-07
8.59161e-08
-7.91523e-07
7.83244e-08
-8.03659e-07
7.01991e-08
-8.1269e-07
6.16578e-08
-8.18725e-07
5.28089e-08
-8.21889e-07
4.37505e-08
-8.22311e-07
3.45695e-08
-8.20122e-07
2.5342e-08
-8.15448e-07
1.61339e-08
-8.08414e-07
7.00367e-09
-7.99137e-07
-1.99683e-09
-7.87758e-07
-1.08239e-08
-7.74313e-07
-1.94391e-08
-7.58898e-07
-2.78236e-08
-7.41593e-07
-3.59383e-08
-7.22484e-07
-4.37426e-08
-7.01662e-07
-5.11922e-08
-6.79229e-07
-5.82383e-08
-6.55295e-07
-6.48275e-08
-6.29984e-07
-7.09019e-08
-6.03437e-07
-7.6401e-08
-5.75808e-07
-8.12639e-08
-5.4727e-07
-8.54323e-08
-5.1801e-07
-8.88539e-08
-4.88228e-07
-9.14862e-08
-4.58133e-07
-9.32993e-08
-4.2794e-07
-9.42786e-08
-3.97863e-07
-9.44269e-08
-3.68111e-07
-9.37644e-08
-3.38883e-07
-9.23284e-08
-3.10366e-07
-9.01718e-08
-2.82729e-07
-8.73603e-08
-2.56121e-07
-8.39697e-08
-2.30671e-07
-8.00828e-08
-2.06485e-07
-7.57856e-08
-1.83652e-07
-7.11651e-08
-1.62237e-07
-6.63063e-08
-1.42286e-07
-6.12902e-08
-1.2383e-07
-5.61924e-08
-1.06882e-07
-5.10817e-08
-9.14405e-08
-4.60201e-08
-7.74897e-08
-4.10616e-08
-6.50029e-08
-3.6253e-08
-5.39422e-08
-3.16332e-08
-4.42599e-08
-2.72342e-08
-3.58998e-08
-2.30815e-08
-2.8798e-08
-1.9194e-08
-2.28855e-08
-1.55835e-08
-1.80862e-08
-1.22603e-08
-1.43213e-08
-9.226e-09
-1.15097e-08
-6.47886e-09
-9.56916e-09
-4.01347e-09
-8.41696e-09
-1.82129e-09
-7.97265e-09
1.09829e-10
-8.15564e-09
1.78881e-09
-8.88902e-09
3.23515e-09
-1.00992e-08
4.46283e-09
-1.17167e-08
5.48812e-09
-1.36763e-08
6.3274e-09
-1.59176e-08
6.9969e-09
-1.83845e-08
7.51247e-09
-2.10261e-08
7.88951e-09
-2.3796e-08
8.14277e-09
-2.66526e-08
8.2861e-09
-2.95585e-08
8.33258e-09
-3.24806e-08
8.29443e-09
-3.53901e-08
8.18294e-09
-3.82616e-08
8.00852e-09
-4.10735e-08
7.78077e-09
-4.38074e-08
7.50857e-09
-4.64478e-08
7.19997e-09
-4.89822e-08
6.86222e-09