/*--------------------------------*- C++ -*----------------------------------*\
  =========                 |
  \\      /  F ield         | OpenFOAM: The Open Source CFD Toolbox
   \\    /   O peration     | Website:  https://openfoam.org
    \\  /    A nd           | Version:  8
     \\/     M anipulation  |
\*---------------------------------------------------------------------------*/
FoamFile
{
    version     2.0;
    format      ascii;
    class       volVectorField;
    location    "0.26";
    object      U;
}
// * * * * * * * * * * * * * * * * * * * * * * * * * * * * * * * * * * * * * //

dimensions      [0 1 -1 0 0 0 0];

internalField   nonuniform List<vector> 
12225
(
(0.0503881 0.0114352 0)
(0.0285551 0.00180668 0)
(0.0102114 0.000130714 0)
(0.00545777 0.000166354 0)
(0.00180662 0.000116601 0)
(-0.00100375 8.82553e-05 0)
(-0.00321511 7.65261e-05 0)
(-0.00509875 6.74833e-05 0)
(-0.00674373 6.06597e-05 0)
(-0.00820775 5.47131e-05 0)
(-0.00952179 4.82979e-05 0)
(-0.0106904 3.92301e-05 0)
(-0.0116824 2.33883e-05 0)
(-0.0124112 -7.12185e-06 0)
(-0.0127452 -5.08092e-05 0)
(-0.0123999 -9.91163e-05 0)
(-0.0122254 -6.87209e-05 0)
(-0.0224435 0.00823107 0)
(0.112477 0.0325856 0)
(0.0777517 0.0110542 0)
(0.0381781 0.00393836 0)
(0.0234964 0.00220727 0)
(0.0129604 0.00164742 0)
(0.00471708 0.00132766 0)
(-0.0018582 0.0011394 0)
(-0.00747075 0.00102106 0)
(-0.0123979 0.00093798 0)
(-0.0168105 0.000873893 0)
(-0.0208048 0.000814881 0)
(-0.024409 0.000742291 0)
(-0.0275697 0.000625968 0)
(-0.0301301 0.000422629 0)
(-0.0318859 0.000129761 0)
(-0.0326277 3.87756e-05 0)
(-0.0345796 0.00182479 0)
(-0.0507711 0.0175152 0)
(0.14879 0.0435422 0)
(0.120267 0.0224194 0)
(0.0718932 0.0107581 0)
(0.0482415 0.0064724 0)
(0.0313892 0.00484735 0)
(0.0180288 0.00395756 0)
(0.00721727 0.00341492 0)
(-0.0020581 0.00307265 0)
(-0.0102475 0.00283649 0)
(-0.0176284 0.00265957 0)
(-0.0243653 0.00250405 0)
(-0.0305247 0.00232295 0)
(-0.0360721 0.00204922 0)
(-0.0408706 0.00160477 0)
(-0.0447982 0.0010468 0)
(-0.0479802 0.00115477 0)
(-0.0532162 0.00516826 0)
(-0.0694313 0.0255728 0)
(0.167879 0.0464117 0)
(0.153546 0.0330974 0)
(0.107284 0.0198527 0)
(0.0779427 0.0129646 0)
(0.0560693 0.00984533 0)
(0.0383611 0.00812993 0)
(0.0237625 0.00706479 0)
(0.011128 0.0063871 0)
(-0.000118987 0.00592482 0)
(-0.010331 0.00558686 0)
(-0.0197334 0.00530302 0)
(-0.0284431 0.00499251 0)
(-0.0364794 0.00455117 0)
(-0.0437892 0.0038841 0)
(-0.050405 0.00316585 0)
(-0.0567102 0.00370511 0)
(-0.0650705 0.0097301 0)
(-0.0796197 0.0321686 0)
(0.176179 0.0441475 0)
(0.176428 0.0410168 0)
(0.13994 0.0294395 0)
(0.10984 0.0210485 0)
(0.0851798 0.0164342 0)
(0.0644328 0.0137639 0)
(0.0468868 0.0120722 0)
(0.0314866 0.0109818 0)
(0.0176219 0.010244 0)
(0.00490766 0.00971727 0)
(-0.00692026 0.0092967 0)
(-0.0180205 0.00887053 0)
(-0.0284885 0.0083086 0)
(-0.0383878 0.00752724 0)
(-0.0479008 0.00683388 0)
(-0.057472 0.0078957 0)
(-0.068503 0.0151718 0)
(-0.0816625 0.0374098 0)
(0.178347 0.039158 0)
(0.189469 0.0452866 0)
(0.166263 0.0377532 0)
(0.140465 0.0296235 0)
(0.116087 0.0240941 0)
(0.0941927 0.0205845 0)
(0.0749718 0.0182807 0)
(0.0577321 0.0167683 0)
(0.0419599 0.0157506 0)
(0.0273039 0.0150431 0)
(0.0134997 0.0145113 0)
(0.000351619 0.014024 0)
(-0.0122961 0.0134433 0)
(-0.0246103 0.012716 0)
(-0.0368773 0.0122529 0)
(-0.0494523 0.0138264 0)
(-0.0627412 0.0215497 0)
(-0.0754774 0.0420816 0)
(0.177553 0.0329176 0)
(0.194519 0.04595 0)
(0.184291 0.0435292 0)
(0.166405 0.0373841 0)
(0.145595 0.0319798 0)
(0.124903 0.0280729 0)
(0.105694 0.0253497 0)
(0.0878845 0.0235119 0)
(0.0712076 0.0222789 0)
(0.0554276 0.0214503 0)
(0.0403274 0.0208774 0)
(0.0257121 0.0204237 0)
(0.0113873 0.019965 0)
(-0.00288576 0.0194935 0)
(-0.0174136 0.0194594 0)
(-0.0323999 0.0215073 0)
(-0.0475244 0.0290836 0)
(-0.0607568 0.0470783 0)
(0.175753 0.0265295 0)
(0.194062 0.0436948 0)
(0.193935 0.0462056 0)
(0.185241 0.0431617 0)
(0.170543 0.0390298 0)
(0.153435 0.0354451 0)
(0.136166 0.0327067 0)
(0.119327 0.0307799 0)
(0.10301 0.0294902 0)
(0.0871715 0.0286678 0)
(0.0716975 0.0281761 0)
(0.0564348 0.0278936 0)
(0.0411931 0.0277268 0)
(0.0257262 0.0277084 0)
(0.00975765 0.0282806 0)
(-0.00677593 0.0308167 0)
(-0.0231531 0.0379501 0)
(-0.037337 0.0531316 0)
(0.173964 0.0207307 0)
(0.190543 0.0395316 0)
(0.196621 0.0459313 0)
(0.196164 0.0462636 0)
(0.188636 0.044249 0)
(0.176867 0.0417694 0)
(0.163325 0.0395741 0)
(0.149058 0.0379338 0)
(0.134501 0.0368502 0)
(0.119841 0.0362378 0)
(0.105105 0.0360052 0)
(0.090225 0.0360686 0)
(0.0750598 0.0363772 0)
(0.0594089 0.0369994 0)
(0.0430743 0.0383274 0)
(0.0261052 0.0414065 0)
(0.00933142 0.0480929 0)
(-0.0055827 0.0606538 0)
(0.172571 0.0158998 0)
(0.185902 0.034477 0)
(0.194553 0.0433744 0)
(0.199996 0.0466262 0)
(0.199069 0.04702 0)
(0.193243 0.0462138 0)
(0.184576 0.0451108 0)
(0.174182 0.0441981 0)
(0.162679 0.0436587 0)
(0.15043 0.0435231 0)
(0.137607 0.0437729 0)
(0.124244 0.0443805 0)
(0.110285 0.0453455 0)
(0.0956156 0.0467635 0)
(0.0801397 0.048959 0)
(0.0639819 0.0526677 0)
(0.0479185 0.0590834 0)
(0.0331171 0.0695747 0)
(0.171621 0.0121165 0)
(0.181393 0.0293683 0)
(0.189978 0.0394428 0)
(0.198639 0.0447303 0)
(0.202616 0.0472753 0)
(0.202109 0.0483157 0)
(0.198481 0.0486512 0)
(0.192586 0.0488356 0)
(0.184994 0.0491714 0)
(0.176123 0.0497934 0)
(0.166231 0.0507616 0)
(0.155442 0.0521118 0)
(0.143789 0.0538928 0)
(0.131257 0.0562186 0)
(0.117854 0.0593445 0)
(0.103755 0.0637502 0)
(0.0896172 0.0701304 0)
(0.0761297 0.0792166 0)
(0.171116 0.00938543 0)
(0.178014 0.0251352 0)
(0.18515 0.035407 0)
(0.194712 0.0416659 0)
(0.201314 0.0456466 0)
(0.204352 0.0481892 0)
(0.204624 0.0498694 0)
(0.202644 0.0511981 0)
(0.198793 0.0525166 0)
(0.193418 0.0540141 0)
(0.186776 0.0558033 0)
(0.179029 0.0579671 0)
(0.17027 0.0605896 0)
(0.160555 0.0637915 0)
(0.149972 0.0677703 0)
(0.138721 0.0728305 0)
(0.127348 0.0793553 0)
(0.1162 0.0876812 0)
(0.170925 0.00729042 0)
(0.175536 0.0214711 0)
(0.180658 0.0314484 0)
(0.189897 0.0380447 0)
(0.197682 0.0429174 0)
(0.202892 0.0466071 0)
(0.205982 0.0494446 0)
(0.207188 0.0518505 0)
(0.206669 0.0541571 0)
(0.204637 0.0565698 0)
(0.201292 0.0592264 0)
(0.19679 0.062237 0)
(0.191246 0.0657052 0)
(0.184764 0.0697467 0)
(0.177475 0.0745075 0)
(0.169589 0.0801644 0)
(0.161542 0.0868991 0)
(0.153457 0.0948037 0)
(0.17098 0.00563711 0)
(0.173767 0.0179236 0)
(0.176471 0.0272099 0)
(0.184521 0.0337188 0)
(0.192425 0.0390046 0)
(0.198672 0.0434718 0)
(0.203569 0.0472488 0)
(0.207209 0.050631 0)
(0.20956 0.0539046 0)
(0.210674 0.0572609 0)
(0.210663 0.0608351 0)
(0.209638 0.0647406 0)
(0.207703 0.0690802 0)
(0.204974 0.0739515 0)
(0.201595 0.0794488 0)
(0.197756 0.0856518 0)
(0.193781 0.0926074 0)
(0.189679 0.100275 0)
(0.171177 0.00444932 0)
(0.172733 0.0146911 0)
(0.173089 0.0229759 0)
(0.179518 0.0290758 0)
(0.186797 0.0343007 0)
(0.193065 0.0390505 0)
(0.19861 0.0433547 0)
(0.203557 0.0473906 0)
(0.207789 0.0513813 0)
(0.211246 0.055487 0)
(0.213957 0.0598191 0)
(0.215986 0.0644703 0)
(0.217409 0.0695209 0)
(0.21832 0.0750362 0)
(0.218843 0.0810609 0)
(0.219125 0.0876075 0)
(0.219379 0.094647 0)
(0.219583 0.102094 0)
(0.171419 0.00358665 0)
(0.172309 0.0118508 0)
(0.17077 0.0189253 0)
(0.175633 0.0243953 0)
(0.182057 0.0292275 0)
(0.187835 0.0338244 0)
(0.193231 0.0382017 0)
(0.1985 0.0424548 0)
(0.203546 0.0467452 0)
(0.208266 0.0511985 0)
(0.212652 0.0558967 0)
(0.216743 0.0609007 0)
(0.220593 0.0662571 0)
(0.224271 0.0719943 0)
(0.227863 0.078116 0)
(0.231468 0.084594 0)
(0.235203 0.0913668 0)
(0.23906 0.0983532 0)
(0.171651 0.00289615 0)
(0.172305 0.00931114 0)
(0.169502 0.0150161 0)
(0.173216 0.0196681 0)
(0.179009 0.0239009 0)
(0.184358 0.0280547 0)
(0.189437 0.0321544 0)
(0.194614 0.0362452 0)
(0.199862 0.0404299 0)
(0.205073 0.0447957 0)
(0.210227 0.0493942 0)
(0.215358 0.0542553 0)
(0.220513 0.0593944 0)
(0.225743 0.06481 0)
(0.231103 0.0704801 0)
(0.236651 0.0763599 0)
(0.242447 0.0823844 0)
(0.248493 0.0884952 0)
(0.171843 0.00222918 0)
(0.172567 0.0067797 0)
(0.169181 0.0109059 0)
(0.17237 0.0145091 0)
(0.178017 0.0179521 0)
(0.183359 0.021448 0)
(0.188439 0.025019 0)
(0.193686 0.0286788 0)
(0.199125 0.0324721 0)
(0.204648 0.0364373 0)
(0.21022 0.0405907 0)
(0.215868 0.044933 0)
(0.221629 0.0494542 0)
(0.227541 0.0541327 0)
(0.233637 0.0589349 0)
(0.239947 0.0638149 0)
(0.246505 0.0687183 0)
(0.2533 0.0736099 0)
(0.171952 0.00143567 0)
(0.172998 0.00373321 0)
(0.169867 0.00586139 0)
(0.173407 0.00810587 0)
(0.179591 0.0105313 0)
(0.185532 0.0131494 0)
(0.191187 0.0159683 0)
(0.196991 0.0189861 0)
(0.202986 0.0221906 0)
(0.209058 0.0255631 0)
(0.215157 0.0290813 0)
(0.221299 0.0327192 0)
(0.22751 0.0364472 0)
(0.233811 0.040231 0)
(0.24022 0.0440328 0)
(0.246752 0.0478113 0)
(0.253427 0.0515247 0)
(0.260215 0.0551532 0)
(0.171864 0.000357926 0)
(0.173497 -7.94313e-06 0)
(0.171838 -0.000114344 0)
(0.176968 0.000637837 0)
(0.184486 0.00199177 0)
(0.191615 0.00374446 0)
(0.198379 0.00586507 0)
(0.205171 0.00831849 0)
(0.212006 0.0110292 0)
(0.218774 0.0139232 0)
(0.225443 0.016944 0)
(0.232035 0.0200454 0)
(0.238579 0.0231843 0)
(0.245099 0.0263199 0)
(0.251614 0.0294132 0)
(0.258138 0.0324276 0)
(0.264691 0.0353301 0)
(0.271242 0.0381071 0)
(0.171794 -0.00113092 0)
(0.174585 -0.00440903 0)
(0.175268 -0.00658082 0)
(0.182659 -0.0070926 0)
(0.191879 -0.00656211 0)
(0.20035 -0.0053629 0)
(0.208198 -0.00359511 0)
(0.215785 -0.00136983 0)
(0.223119 0.00116572 0)
(0.23015 0.0038898 0)
(0.236898 0.00671808 0)
(0.243429 0.00958786 0)
(0.2498 0.0124484 0)
(0.256051 0.0152568 0)
(0.262218 0.0179771 0)
(0.268323 0.0205775 0)
(0.274394 0.0230324 0)
(0.280418 0.0253302 0)
(0.17186 -0.00339858 0)
(0.176978 -0.0102998 0)
(0.18115 -0.0144468 0)
(0.191242 -0.0158874 0)
(0.201969 -0.0157577 0)
(0.211127 -0.0146127 0)
(0.219058 -0.012689 0)
(0.226216 -0.0102358 0)
(0.232746 -0.00749007 0)
(0.238743 -0.00461578 0)
(0.24434 -0.00171329 0)
(0.249662 0.00115162 0)
(0.254808 0.00393085 0)
(0.259849 0.0065886 0)
(0.264831 0.00909877 0)
(0.269781 0.011442 0)
(0.274721 0.0136037 0)
(0.27967 0.0155762 0)
(0.172234 -0.00702832 0)
(0.181379 -0.0182144 0)
(0.189579 -0.0236823 0)
(0.201237 -0.0251048 0)
(0.211328 -0.0243667 0)
(0.218578 -0.022337 0)
(0.223899 -0.0195165 0)
(0.2281 -0.0163242 0)
(0.2316 -0.0130513 0)
(0.234679 -0.0098507 0)
(0.237561 -0.00679209 0)
(0.240403 -0.00390895 0)
(0.243298 -0.00121861 0)
(0.246294 0.00127072 0)
(0.249414 0.0035559 0)
(0.252661 0.00563596 0)
(0.256027 0.00751162 0)
(0.259547 0.00918318 0)
(0.173219 -0.0127107 0)
(0.187837 -0.027938 0)
(0.198125 -0.0328331 0)
(0.207148 -0.0323824 0)
(0.212076 -0.0295774 0)
(0.213464 -0.0257767 0)
(0.2131 -0.0217068 0)
(0.212154 -0.0177818 0)
(0.211169 -0.0141795 0)
(0.210415 -0.0109299 0)
(0.210042 -0.00800749 0)
(0.210112 -0.0053788 0)
(0.21063 -0.00301414 0)
(0.211571 -0.000888643 0)
(0.212895 0.00101775 0)
(0.214552 0.00271963 0)
(0.216489 0.00422882 0)
(0.218731 0.00555369 0)
(0.17504 -0.0208121 0)
(0.194218 -0.0376573 0)
(0.200494 -0.0387261 0)
(0.200345 -0.0344107 0)
(0.195713 -0.028843 0)
(0.189013 -0.0235276 0)
(0.182285 -0.0189045 0)
(0.17644 -0.0150154 0)
(0.171683 -0.0117606 0)
(0.167991 -0.00900421 0)
(0.165288 -0.00663249 0)
(0.16347 -0.00456626 0)
(0.162425 -0.00275142 0)
(0.162046 -0.00114968 0)
(0.162231 0.000266531 0)
(0.162887 0.00151733 0)
(0.163927 0.00261751 0)
(0.165352 0.00357856 0)
(0.177081 -0.0307651 0)
(0.195114 -0.0439112 0)
(0.188496 -0.0379997 0)
(0.174685 -0.0296019 0)
(0.160431 -0.022544 0)
(0.147617 -0.0172881 0)
(0.137062 -0.0133703 0)
(0.128763 -0.0103633 0)
(0.122358 -0.00798503 0)
(0.117506 -0.00604114 0)
(0.113942 -0.00440691 0)
(0.111452 -0.0030064 0)
(0.109853 -0.00179117 0)
(0.108993 -0.000728353 0)
(0.108744 0.000204991 0)
(0.108996 0.00102569 0)
(0.10965 0.00174683 0)
(0.110689 0.00237863 0)
(0.176336 -0.04035 0)
(0.183011 -0.0430364 0)
(0.157495 -0.0298809 0)
(0.132486 -0.0200415 0)
(0.113873 -0.0140147 0)
(0.099595 -0.0103177 0)
(0.0887558 -0.00779394 0)
(0.0806258 -0.00593823 0)
(0.0745286 -0.00451103 0)
(0.0699993 -0.00336393 0)
(0.0667183 -0.00240957 0)
(0.0644453 -0.00159771 0)
(0.0629919 -0.000896907 0)
(0.0622079 -0.000286107 0)
(0.0619702 0.00024895 0)
(0.062176 0.000719749 0)
(0.0627355 0.00113538 0)
(0.0636244 0.00150342 0)
(0.165635 -0.0445592 0)
(0.151999 -0.0335304 0)
(0.111101 -0.0176346 0)
(0.0840616 -0.0101456 0)
(0.0676729 -0.00671021 0)
(0.055844 -0.00484979 0)
(0.0471995 -0.0036041 0)
(0.0408938 -0.00270537 0)
(0.0362565 -0.0020261 0)
(0.0328733 -0.00148414 0)
(0.0304715 -0.00103482 0)
(0.0288516 -0.000653492 0)
(0.0278617 -0.000324676 0)
(0.0273824 -3.81534e-05 0)
(0.027318 0.000212999 0)
(0.0275885 0.000434885 0)
(0.0281258 0.000632475 0)
(0.0289086 0.000811914 0)
(0.133105 -0.0365478 0)
(0.101671 -0.0181245 0)
(0.060143 -0.00671992 0)
(0.0408137 -0.00333137 0)
(0.0304995 -0.00215221 0)
(0.0230587 -0.0015407 0)
(0.0177541 -0.00112299 0)
(0.0139655 -0.000828451 0)
(0.0112239 -0.000608884 0)
(0.00926185 -0.000433806 0)
(0.00790605 -0.000288541 0)
(0.00703093 -0.000165148 0)
(0.00654168 -5.86034e-05 0)
(0.00636449 3.41544e-05 0)
(0.00644056 0.000116126 0)
(0.00672081 0.000188832 0)
(0.0071641 0.000254288 0)
(0.00775852 0.000317293 0)
(0.0637966 -0.0129379 0)
(0.0379999 -0.00325671 0)
(0.0163264 -0.000312182 0)
(0.00949877 -0.000195698 0)
(0.00610372 -0.00015166 0)
(0.00358105 -9.68778e-05 0)
(0.00183343 -6.55688e-05 0)
(0.000611888 -4.54737e-05 0)
(-0.000256026 -3.00951e-05 0)
(-0.000860807 -1.75349e-05 0)
(-0.00126092 -6.95681e-06 0)
(-0.00149886 2.16969e-06 0)
(-0.00160666 1.01674e-05 0)
(-0.00160901 1.6999e-05 0)
(-0.00152576 2.35273e-05 0)
(-0.00137342 2.93563e-05 0)
(-0.00116608 3.44093e-05 0)
(-0.000905088 4.11369e-05 0)
(3.36951e-05 -6.48301e-05 -1.66784e-20)
(0.000630373 -0.000368247 2.10643e-20)
(0.00185135 -0.000672663 0)
(0.00360381 -0.000897408 0)
(0.00569979 -0.00103018 0)
(0.00796629 -0.00107848 -2.08822e-20)
(0.0102581 -0.00105747 0)
(0.0124579 -0.000985245 0)
(0.014476 -0.000879778 0)
(0.0162497 -0.000757097 0)
(0.01774 -0.000630475 2.07005e-20)
(0.0189279 -0.00051021 0)
(0.0198102 -0.000403726 0)
(0.020395 -0.000315816 0)
(0.0206985 -0.000248928 0)
(0.0207404 -0.00020361 2.07175e-20)
(0.020541 -0.000178643 0)
(0.0201184 -0.000171266 0)
(0.019485 -0.000177553 0)
(0.0186453 -0.000192685 0)
(0.0175943 -0.00021113 0)
(0.0163158 -0.000226924 0)
(0.0147821 -0.000234309 0)
(0.0129553 -0.000228605 2.10452e-20)
(0.0107877 -0.00020554 -2.11237e-20)
(0.00822454 -0.000161372 2.12149e-20)
(0.00520614 -9.33599e-05 2.13209e-20)
(0.00167103 4.38001e-07 0)
(-0.0024419 0.000121144 0)
(-0.00719184 0.000269888 -2.1294e-20)
(-0.0126302 0.000447953 -2.11545e-20)
(-0.0187999 0.000656292 0)
(-0.0257322 0.000895362 0)
(-0.033444 0.00116501 -2.06336e-20)
(-0.0419363 0.00146425 0)
(-0.0511914 0.00179086 0)
(-0.0611723 0.00214103 1.99706e-20)
(-0.0718213 0.002509 0)
(-0.0830605 0.00288691 1.94673e-20)
(-0.0947927 0.0032649 3.84062e-20)
(-0.106903 0.00363156 0)
(-0.119261 0.00397455 0)
(-0.131726 0.00428147 0)
(-0.144148 0.00454074 0)
(-0.156372 0.0047424 0)
(-0.168245 0.00487864 3.51423e-20)
(-0.179616 0.00494427 3.46162e-20)
(-0.19034 0.00493675 3.41027e-20)
(-0.200285 0.00485625 0)
(-0.209327 0.00470543 -3.31206e-20)
(-0.217358 0.00448892 0)
(-0.224282 0.00421218 3.22077e-20)
(-0.23002 0.00388017 3.17799e-20)
(-0.23451 0.00349753 0)
(-0.237703 0.00306568 0)
(-0.239565 0.00259127 0)
(-0.240072 0.00208796 3.02656e-20)
(-0.239219 0.00157089 0)
(-0.237038 0.0010509 0)
(-0.233566 0.000536778 0)
(-0.228862 3.702e-05 0)
(-0.222997 -0.000439843 0)
(-0.216062 -0.000885594 0)
(-0.208161 -0.00129261 0)
(-0.199411 -0.00165418 0)
(-0.189944 -0.00196478 -2.79702e-20)
(-0.179898 -0.00222034 0)
(-0.169419 -0.0024185 0)
(-0.158656 -0.00255866 2.76691e-20)
(-0.147755 -0.00264204 2.76115e-20)
(-0.136859 -0.00267158 0)
(-0.126102 -0.00265168 -2.75461e-20)
(-0.115607 -0.00258797 2.75323e-20)
(-0.105482 -0.0024869 0)
(-0.0958218 -0.00235541 -2.7526e-20)
(-0.0867014 -0.00220057 0)
(-0.0781798 -0.00202924 0)
(-0.0702991 -0.00184778 2.7522e-20)
(-0.063085 -0.00166192 0)
(-0.0565485 -0.00147658 -2.74901e-20)
(-0.0506873 -0.0012958 0)
(-0.0454882 -0.00112279 2.74159e-20)
(-0.0409283 -0.000959927 2.73599e-20)
(-0.0369775 -0.000808831 2.72904e-20)
(-0.0336002 -0.000670481 5.44144e-20)
(-0.030757 -0.000545303 -5.42209e-20)
(-0.0284062 -0.000433288 0)
(-0.026505 -0.000334083 0)
(-0.0250106 -0.000247087 0)
(-0.0238812 -0.000171556 -5.31937e-20)
(-0.0230763 -0.000106625 -5.28806e-20)
(-0.0225574 -5.14158e-05 5.25482e-20)
(-0.0222883 -5.21216e-06 0)
(-0.0222364 3.28102e-05 -5.18323e-20)
(-0.02237 6.49561e-05 -5.14429e-20)
(-0.0226603 9.07635e-05 -5.10426e-20)
(-0.0230823 0.000111085 0)
(-0.023613 0.000126744 0)
(-0.0242318 0.000138394 0)
(-0.0249202 0.0001466 -4.93546e-20)
(-0.0256617 0.000151861 0)
(-0.026442 0.000154627 0)
(-0.0272482 0.000155288 4.80244e-20)
(-0.0280692 0.000154187 0)
(-0.0288954 0.000151623 0)
(-0.0297184 0.000147861 4.66607e-20)
(-0.030531 0.000143127 0)
(-0.0313272 0.000137616 0)
(-0.0321017 0.0001315 -4.52771e-20)
(-0.0328503 0.000124925 -4.48131e-20)
(-0.0335694 0.000118016 0)
(-0.0342563 0.000110886 4.38826e-20)
(-0.0349086 0.000103628 0)
(-0.0355248 9.63198e-05 -4.29504e-20)
(-0.0361035 8.90294e-05 0)
(-0.0366442 8.18174e-05 -4.20176e-20)
(-0.0371465 7.47341e-05 -4.15514e-20)
(-0.0376104 6.78226e-05 0)
(-0.0380362 6.11197e-05 0)
(-0.0384246 5.46583e-05 0)
(-0.0387765 4.8467e-05 0)
(-0.039093 4.25694e-05 0)
(-0.0393755 3.69843e-05 0)
(-0.0396254 3.17259e-05 0)
(-0.0398443 2.68025e-05 -3.78387e-20)
(-0.040034 2.22163e-05 3.73778e-20)
(-0.0401962 1.79619e-05 0)
(-0.0403328 1.40236e-05 0)
(-0.0404457 1.03672e-05 0)
(-0.0405367 6.89485e-06 0)
(-0.0406078 3.50041e-06 7.01728e-20)
(-0.040661 8.35682e-07 0)
(-0.0406976 -5.3661e-07 -6.8352e-20)
(-0.0407188 -2.00545e-06 6.74445e-20)
(-0.0407268 -3.51457e-06 0)
(-0.040723 -4.93334e-06 0)
(-0.0407089 -6.15917e-06 0)
(-0.0406856 -7.2253e-06 -6.38374e-20)
(-0.0406543 -8.13499e-06 -6.29415e-20)
(-0.0406161 -8.89505e-06 0)
(-0.0405719 -9.52092e-06 -6.11568e-20)
(-0.0405226 -1.00273e-05 -6.02682e-20)
(-0.0404689 -1.04233e-05 5.9382e-20)
(-0.0404116 -1.07261e-05 0)
(-0.0403512 -1.09467e-05 0)
(-0.0402884 -1.10986e-05 5.6739e-20)
(-0.0402234 -1.11907e-05 0)
(-0.0401569 -1.12339e-05 0)
(-0.040089 -1.12374e-05 0)
(-0.0400201 -1.12093e-05 0)
(-0.0399504 -1.11518e-05 -5.23873e-20)
(-0.0398801 -1.10756e-05 -5.15253e-20)
(-0.0398094 -1.0987e-05 0)
(-0.0397383 -1.08897e-05 -4.98098e-20)
(-0.0396671 -1.0788e-05 0)
(-0.0395957 -1.06853e-05 0)
(-0.0395241 -1.05849e-05 -4.72585e-20)
(-0.0394525 -1.04898e-05 0)
(-0.0393807 -1.0403e-05 -4.55726e-20)
(-0.0393088 -1.03278e-05 0)
(-0.0392368 -1.02672e-05 0)
(-0.0391644 -1.02249e-05 -4.30669e-20)
(-0.0390917 -1.02055e-05 0)
(-0.0390184 -1.0215e-05 -4.14124e-20)
(-0.0389445 -1.0259e-05 0)
(-0.0388696 -1.03441e-05 0)
(-0.0387934 -1.04776e-05 0)
(-0.0387155 -1.06732e-05 3.81434e-20)
(-0.0386354 -1.09474e-05 0)
(-0.0385523 -1.13137e-05 -3.65299e-20)
(-0.0384653 -1.17981e-05 0)
(-0.0383731 -1.24295e-05 0)
(-0.0382739 -1.32374e-05 0)
(-0.0381653 -1.42348e-05 0)
(-0.038044 -1.54779e-05 0)
(-0.0379031 -1.72314e-05 0)
(-0.037733 -2.11853e-05 0)
(-0.0375232 -3.25157e-05 6.04745e-20)
(-0.0370776 -5.77061e-05 0)
(-0.0350955 -0.000488845 0)
(0.000181592 -0.00134416 5.23924e-20)
(0.00172921 -0.0038928 -6.68464e-20)
(0.00437136 -0.00599699 0)
(0.00786846 -0.00748249 4.41493e-20)
(0.0118673 -0.00833131 0)
(0.0160734 -0.00860496 2.18518e-20)
(0.0202451 -0.00839921 -4.35111e-20)
(0.0241836 -0.00782083 -4.33458e-20)
(0.0277306 -0.00697388 0)
(0.0307656 -0.00595176 -4.31247e-20)
(0.0332017 -0.00483325 -2.15358e-20)
(0.0349802 -0.00368113 0)
(0.0360642 -0.00254241 0)
(0.0364338 -0.0014494 0)
(0.0360789 -0.000421452 0)
(0.0349957 0.000535074 -2.16807e-20)
(0.0331806 0.00142569 0)
(0.0306246 0.00226524 4.3661e-20)
(0.027309 0.00307692 0)
(0.0232019 0.00388997 0)
(0.018254 0.0047383 -4.44988e-20)
(0.0123968 0.00565792 0)
(0.00554387 0.00668336 4.53619e-20)
(-0.00240561 0.00784473 -2.27095e-20)
(-0.0115684 0.0091669 2.24293e-20)
(-0.0220614 0.0106648 -2.20864e-20)
(-0.0340005 0.0123441 -2.17095e-20)
(-0.0474895 0.0142007 0)
(-0.0626103 0.0162207 0)
(-0.0794154 0.0183808 2.03992e-20)
(-0.0979198 0.0206478 -1.98627e-20)
(-0.118095 0.0229795 0)
(-0.139863 0.0253243 0)
(-0.163092 0.0276233 1.84142e-20)
(-0.187602 0.0298117 0)
(-0.213162 0.0318222 0)
(-0.239499 0.0335884 -1.69624e-20)
(-0.26631 0.0350485 0)
(-0.293266 0.0361485 1.60863e-20)
(-0.320031 0.0368454 -3.13886e-20)
(-0.346269 0.0371092 0)
(-0.371653 0.0369233 0)
(-0.395878 0.0362852 -5.87423e-20)
(-0.418665 0.0352055 -5.76144e-20)
(-0.439768 0.0337058 -5.65905e-20)
(-0.458974 0.0318174 2.78817e-20)
(-0.476108 0.0295786 -2.73626e-20)
(-0.491029 0.0270326 -8.10744e-20)
(-0.503628 0.0242255 5.34251e-20)
(-0.513832 0.0212041 2.6355e-20)
(-0.521594 0.018014 0)
(-0.526895 0.0146973 -2.58698e-20)
(-0.529738 0.011297 2.58132e-20)
(-0.530145 0.00785876 0)
(-0.528157 0.00442355 0)
(-0.523846 0.00103975 0)
(-0.51733 -0.00225235 -2.50143e-20)
(-0.508709 -0.00541746 0)
(-0.498087 -0.00842263 4.96116e-20)
(-0.485587 -0.0112387 0)
(-0.471345 -0.0138373 4.92909e-20)
(-0.455511 -0.0161917 0)
(-0.438249 -0.018277 -4.9207e-20)
(-0.419738 -0.0200718 0)
(-0.400166 -0.0215586 4.93686e-20)
(-0.379735 -0.0227252 -2.4817e-20)
(-0.358653 -0.0235652 0)
(-0.337133 -0.0240792 -5.00775e-20)
(-0.315388 -0.0242747 -2.51805e-20)
(-0.293629 -0.0241661 -2.53887e-20)
(-0.27206 -0.0237745 0)
(-0.250872 -0.0231265 -2.5932e-20)
(-0.230243 -0.0222532 -2.61479e-20)
(-0.210333 -0.0211891 0)
(-0.191282 -0.0199705 2.6726e-20)
(-0.173209 -0.018634 -5.40828e-20)
(-0.156211 -0.0172154 0)
(-0.14036 -0.0157485 -2.76e-20)
(-0.125709 -0.0142643 0)
(-0.112288 -0.0127902 8.43988e-20)
(-0.100107 -0.0113498 0)
(-0.0891611 -0.00996237 -8.56898e-20)
(-0.0794257 -0.00864341 -2.87284e-20)
(-0.0708647 -0.00740435 2.88856e-20)
(-0.0634303 -0.0062531 5.79791e-20)
(-0.0570652 -0.00519442 -5.81179e-20)
(-0.0517054 -0.00423031 0)
(-0.0472818 -0.0033605 0)
(-0.0437222 -0.00258287 0)
(-0.0409528 -0.001894 1.73983e-19)
(-0.0388997 -0.00128934 5.78112e-20)
(-0.0374902 -0.000763646 -5.75794e-20)
(-0.0366538 -0.000311344 0)
(-0.0363228 7.35791e-05 -5.69795e-20)
(-0.0364331 0.000398888 5.65763e-20)
(-0.0369246 0.000669098 5.61397e-20)
(-0.0377413 0.000890075 0)
(-0.038832 0.00106732 0)
(-0.0401499 0.00120591 0)
(-0.041652 0.00131052 5.42132e-20)
(-0.0432997 0.00138545 0)
(-0.0450584 0.00143463 -1.06358e-19)
(-0.0468971 0.00146163 -1.57964e-19)
(-0.0487882 0.00146962 1.04249e-19)
(-0.0507076 0.00146149 0)
(-0.0526342 0.0014398 5.10572e-20)
(-0.0545494 0.00140681 0)
(-0.0564375 0.00136454 9.99885e-20)
(-0.0582848 0.00131478 -4.94599e-20)
(-0.0600799 0.00125908 -4.89302e-20)
(-0.0618132 0.00119883 0)
(-0.063477 0.00113524 -1.43643e-19)
(-0.065065 0.00106938 9.47154e-20)
(-0.0665724 0.00100217 4.68405e-20)
(-0.0679958 0.000934415 0)
(-0.0693327 0.000866843 4.58102e-20)
(-0.0705818 0.000800066 1.35895e-19)
(-0.0717428 0.000734615 0)
(-0.0728162 0.000670949 8.85723e-20)
(-0.0738033 0.00060946 8.75694e-20)
(-0.0747058 0.000550482 8.65722e-20)
(-0.0755264 0.000494284 0)
(-0.0762679 0.000441078 0)
(-0.0769338 0.00039102 0)
(-0.0775278 0.000344213 -4.13163e-20)
(-0.0780539 0.000300709 -4.08315e-20)
(-0.0785161 0.000260509 0)
(-0.0789189 0.000223565 -7.97272e-20)
(-0.0792665 0.000189782 -7.87655e-20)
(-0.0795631 0.000158981 0)
(-0.0798131 0.000131011 -7.68523e-20)
(-0.0800202 0.000106358 -1.51797e-19)
(-0.0801891 8.53487e-05 7.49478e-20)
(-0.0803236 6.65646e-05 7.3997e-20)
(-0.0804269 4.98541e-05 0)
(-0.0805026 3.51462e-05 0)
(-0.0805537 2.24384e-05 0)
(-0.0805835 1.14729e-05 7.0217e-20)
(-0.0805945 2.10508e-06 -6.92769e-20)
(-0.0805891 -5.80858e-06 -1.3668e-19)
(-0.0805698 -1.24333e-05 6.74052e-20)
(-0.0805384 -1.79177e-05 -6.64715e-20)
(-0.0804969 -2.23825e-05 -6.55407e-20)
(-0.0804467 -2.59695e-05 0)
(-0.0803894 -2.87872e-05 0)
(-0.0803262 -3.09509e-05 6.27574e-20)
(-0.0802581 -3.25484e-05 0)
(-0.0801861 -3.36736e-05 0)
(-0.0801111 -3.44066e-05 -1.19982e-19)
(-0.0800337 -3.48165e-05 0)
(-0.0799544 -3.49447e-05 -5.81554e-20)
(-0.0798739 -3.48609e-05 5.72406e-20)
(-0.0797925 -3.46144e-05 0)
(-0.0797104 -3.42433e-05 -5.5416e-20)
(-0.0796281 -3.37815e-05 0)
(-0.0795457 -3.3259e-05 0)
(-0.0794632 -3.27024e-05 5.26942e-20)
(-0.079381 -3.21365e-05 -1.03581e-19)
(-0.0792989 -3.15848e-05 5.08895e-20)
(-0.0792171 -3.10705e-05 0)
(-0.0791355 -3.06176e-05 0)
(-0.079054 -3.02533e-05 -4.81982e-20)
(-0.0789725 -3.00104e-05 0)
(-0.0788908 -2.99266e-05 -4.64153e-20)
(-0.0788086 -3.00488e-05 0)
(-0.0787254 -3.04358e-05 0)
(-0.0786408 -3.11602e-05 0)
(-0.078554 -3.2334e-05 -4.28788e-20)
(-0.0784639 -3.41035e-05 0)
(-0.0783689 -3.66434e-05 4.11263e-20)
(-0.0782671 -4.023e-05 0)
(-0.0781555 -4.52342e-05 0)
(-0.07803 -5.21781e-05 -7.70402e-20)
(-0.0778844 -6.18693e-05 7.53165e-20)
(-0.077709 -7.58582e-05 0)
(-0.077487 -9.75345e-05 0)
(-0.077194 -0.000140197 0)
(-0.0767672 -0.000259838 -2.05514e-19)
(-0.0758721 -0.000607849 0)
(-0.0736296 -0.00191138 1.30137e-19)
(0.000233014 -0.00352407 -1.35444e-23)
(0.00214169 -0.00921788 8.875e-20)
(0.00522939 -0.0134721 0)
(0.00915341 -0.016272 -8.7634e-20)
(0.0134749 -0.0177239 0)
(0.01786 -0.0180043 0)
(0.0220495 -0.0173189 9.16916e-24)
(0.025834 -0.0158763 4.30498e-20)
(0.0290432 -0.013871 4.29736e-20)
(0.0315403 -0.0114733 4.29666e-20)
(0.0332157 -0.00882473 0)
(0.0339813 -0.00603789 0)
(0.0337648 -0.00319707 -4.32817e-20)
(0.0325032 -0.000361321 -8.68533e-20)
(0.0301404 0.0024376 8.71281e-20)
(0.0266219 0.00518976 0)
(0.0218903 0.00790522 8.79992e-20)
(0.0158799 0.0106139 -4.43554e-20)
(0.00851318 0.0133618 0)
(-0.000301803 0.0162073 8.96425e-20)
(-0.0106768 0.0192189 4.42688e-20)
(-0.0227351 0.022463 -8.67864e-20)
(-0.036609 0.0259982 -4.24995e-20)
(-0.0524303 0.0298683 0)
(-0.0703189 0.0340946 8.07761e-20)
(-0.09037 0.038671 7.85208e-20)
(-0.11264 0.043562 0)
(-0.137134 0.0487017 7.37989e-20)
(-0.163793 0.0539955 0)
(-0.192487 0.0593225 6.90272e-20)
(-0.22301 0.0645409 3.33575e-20)
(-0.255086 0.0694958 0)
(-0.288374 0.0740275 0)
(-0.322479 0.077981 0)
(-0.356972 0.0812158 0)
(-0.391402 0.0836134 0)
(-0.425319 0.0850839 0)
(-0.458286 0.0855697 5.39633e-20)
(-0.489899 0.0850467 -7.90156e-20)
(-0.519794 0.0835228 0)
(-0.547654 0.0810353 0)
(-0.573218 0.0776457 0)
(-0.596279 0.0734353 -2.62066e-22)
(-0.616681 0.0684989 4.83313e-20)
(-0.63432 0.0629397 9.59141e-20)
(-0.649135 0.0568644 -9.50657e-20)
(-0.661105 0.0503794 -4.73249e-20)
(-0.670241 0.0435872 4.67666e-20)
(-0.67658 0.036584 2.75442e-22)
(-0.680183 0.0294584 4.66606e-20)
(-0.681128 0.0222911 0)
(-0.679498 0.0151572 4.6475e-20)
(-0.675384 0.00812585 2.53007e-22)
(-0.66889 0.00125973 0)
(-0.660187 -0.0053751 0)
(-0.649359 -0.0117374 -4.58139e-20)
(-0.636494 -0.017793 0)
(-0.621701 -0.023508 0)
(-0.605095 -0.0288455 4.55375e-20)
(-0.5868 -0.0337677 9.05336e-20)
(-0.566949 -0.0382371 -4.50622e-20)
(-0.545689 -0.0422174 0)
(-0.523177 -0.0456748 4.51827e-20)
(-0.499585 -0.0485796 0)
(-0.475094 -0.0509084 4.57963e-20)
(-0.449896 -0.0526452 4.57851e-20)
(-0.424193 -0.053784 -9.24405e-20)
(-0.398189 -0.0543291 -4.66955e-20)
(-0.37209 -0.0542964 0)
(-0.346102 -0.0537132 9.50539e-20)
(-0.32042 -0.0526172 0)
(-0.295232 -0.0510557 1.46012e-19)
(-0.270712 -0.0490834 9.86963e-20)
(-0.247018 -0.0467607 1.00091e-19)
(-0.224288 -0.0441509 -1.01548e-19)
(-0.202644 -0.0413186 1.54538e-19)
(-0.182184 -0.0383272 0)
(-0.162989 -0.0352373 0)
(-0.145117 -0.032105 -1.07576e-19)
(-0.128609 -0.0289813 -1.63501e-19)
(-0.113486 -0.0259108 0)
(-0.099754 -0.0229316 5.58042e-20)
(-0.0874009 -0.020075 0)
(-0.0764019 -0.017366 -1.70684e-19)
(-0.0667195 -0.0148231 2.28599e-23)
(-0.0583051 -0.0124595 -2.07472e-23)
(-0.0511009 -0.0102828 1.15908e-19)
(-0.0450417 -0.00829656 0)
(-0.0400563 -0.00649992 -1.1649e-19)
(-0.0360694 -0.00488954 1.41233e-23)
(-0.0330024 -0.00345901 0)
(-0.030776 -0.00220005 0)
(-0.0293104 -0.00110289 0)
(-0.0285267 -0.000156562 1.15253e-19)
(-0.0283493 0.000650697 0)
(-0.0287042 0.00133098 0)
(-0.0295213 0.00189564 0)
(-0.0307352 0.00235603 0)
(-0.0322845 0.00272307 0)
(-0.0341124 0.00300705 1.09447e-19)
(-0.0361667 0.00321766 0)
(-0.0383999 0.0033639 1.0721e-19)
(-0.0407688 0.00345404 1.06075e-19)
(-0.0432347 0.00349567 -1.04932e-19)
(-0.0457629 0.00349569 0)
(-0.0483229 0.00346035 -1.02639e-19)
(-0.0508875 0.00339526 0)
(-0.0534332 0.00330544 -1.00356e-19)
(-0.0559397 0.00319538 9.92226e-20)
(-0.0583895 0.00306907 2.94289e-19)
(-0.0607679 0.00293005 0)
(-0.0630627 0.00278153 2.87613e-19)
(-0.065264 0.00262625 9.47715e-20)
(-0.0673639 0.00246664 0)
(-0.0693564 0.00230486 1.85214e-19)
(-0.0712374 0.00214282 1.83079e-19)
(-0.0730042 0.00198216 -2.71447e-19)
(-0.0746555 0.00182429 0)
(-0.0761913 0.00167044 -8.83976e-20)
(-0.0776129 0.00152166 -8.73687e-20)
(-0.0789224 0.00137881 -2.59044e-19)
(-0.0801227 0.00124259 0)
(-0.0812177 0.00111357 0)
(-0.0822116 0.000992148 0)
(-0.0831093 0.00087859 -8.23436e-20)
(-0.083916 0.000773044 0)
(-0.0846372 0.000675538 0)
(-0.0852785 0.000586001 7.94105e-20)
(-0.0858457 0.000504283 7.84425e-20)
(-0.0863446 0.000430156 0)
(-0.0867807 0.000363359 0)
(-0.0871595 0.000303448 1.51128e-19)
(-0.0874866 0.000249957 0)
(-0.0877671 0.000202717 -1.47325e-19)
(-0.0880057 0.000161214 -1.45426e-19)
(-0.088207 0.000125008 0)
(-0.0883752 9.34126e-05 0)
(-0.0885145 6.61642e-05 1.39752e-19)
(-0.0886283 4.28868e-05 8.03304e-25)
(-0.0887201 2.31625e-05 7.61479e-25)
(-0.0887928 6.57375e-06 0)
(-0.0888492 -7.25397e-06 2.64522e-19)
(-0.0888918 -1.85977e-05 0)
(-0.0889226 -2.78197e-05 0)
(-0.0889438 -3.51748e-05 0)
(-0.0889569 -4.09391e-05 -1.24847e-19)
(-0.0889635 -4.53232e-05 0)
(-0.0889649 -4.85493e-05 2.4233e-19)
(-0.0889622 -5.0807e-05 1.19331e-19)
(-0.0889563 -5.22591e-05 0)
(-0.0889481 -5.30025e-05 1.15673e-19)
(-0.0889384 -5.32011e-05 0)
(-0.0889277 -5.29682e-05 0)
(-0.0889166 -5.23929e-05 3.30647e-19)
(-0.0889053 -5.1554e-05 -2.16809e-19)
(-0.0888944 -5.052e-05 0)
(-0.088884 -4.93518e-05 -2.09588e-19)