/*--------------------------------*- C++ -*----------------------------------*\
  =========                 |
  \\      /  F ield         | OpenFOAM: The Open Source CFD Toolbox
   \\    /   O peration     | Website:  https://openfoam.org
    \\  /    A nd           | Version:  8
     \\/     M anipulation  |
\*---------------------------------------------------------------------------*/
FoamFile
{
    version     2.0;
    format      ascii;
    class       volScalarField;
    location    "0.02";
    object      p;
}
// * * * * * * * * * * * * * * * * * * * * * * * * * * * * * * * * * * * * * //

dimensions      [0 2 -2 0 0 0 0];

internalField   nonuniform List<scalar> 
12225
(
0.781817
0.762197
0.755538
0.748418
0.741957
0.735768
0.729834
0.724111
0.718572
0.713192
0.70795
0.70282
0.697776
0.692787
0.68781
0.682771
0.677677
0.671309
0.779712
0.762351
0.755599
0.748448
0.741969
0.735772
0.729832
0.724104
0.71856
0.713176
0.707927
0.702788
0.697731
0.69272
0.687704
0.682591
0.677263
0.670838
0.777725
0.76241
0.755639
0.748471
0.741979
0.735775
0.72983
0.724099
0.718551
0.713163
0.707908
0.702763
0.697695
0.692668
0.687624
0.682461
0.677015
0.670833
0.776148
0.76239
0.755617
0.748477
0.741981
0.735777
0.729831
0.724098
0.71855
0.71316
0.707904
0.702757
0.697688
0.692658
0.687613
0.68246
0.67706
0.671212
0.774828
0.762317
0.755543
0.748468
0.741976
0.735777
0.729834
0.724103
0.718556
0.713169
0.707917
0.702774
0.697713
0.692696
0.687677
0.682583
0.677322
0.671834
0.773685
0.762198
0.755429
0.748442
0.741964
0.735777
0.729839
0.724114
0.718573
0.713192
0.707948
0.702818
0.697774
0.692786
0.687815
0.682814
0.677733
0.67259
0.772686
0.762039
0.755287
0.7484
0.741945
0.735775
0.729848
0.724132
0.718601
0.713231
0.708002
0.702891
0.697875
0.69293
0.688027
0.683139
0.678253
0.673422
0.771814
0.761847
0.755123
0.748343
0.74192
0.735772
0.729862
0.72416
0.718643
0.713289
0.70808
0.702997
0.698019
0.693129
0.688309
0.683547
0.678853
0.674294
0.771052
0.761636
0.754944
0.748273
0.74189
0.73577
0.729881
0.724198
0.7187
0.713368
0.708186
0.703138
0.698208
0.693383
0.688656
0.684025
0.679513
0.675185
0.770391
0.761415
0.754759
0.748192
0.741856
0.735771
0.729907
0.724248
0.718774
0.71347
0.708322
0.703316
0.698441
0.69369
0.689061
0.68456
0.680215
0.67608
0.769825
0.761184
0.754574
0.748106
0.741822
0.735775
0.729943
0.724312
0.718867
0.713597
0.708488
0.703531
0.698719
0.694048
0.689519
0.685143
0.680947
0.676974
0.769386
0.760977
0.754414
0.748027
0.741794
0.735784
0.729985
0.724384
0.718972
0.713736
0.708669
0.703763
0.699012
0.694416
0.689978
0.685711
0.681637
0.677793
0.768962
0.760837
0.754258
0.74795
0.741771
0.735801
0.730037
0.72447
0.719093
0.713897
0.708875
0.704021
0.699334
0.694813
0.690464
0.686296
0.682332
0.678594
0.768507
0.76071
0.754095
0.747867
0.741753
0.735831
0.730111
0.724588
0.719256
0.714109
0.709142
0.704353
0.69974
0.695305
0.691052
0.686989
0.683133
0.679497
0.768077
0.760586
0.753947
0.74779
0.74175
0.735886
0.73022
0.72475
0.719473
0.714386
0.709487
0.704773
0.700245
0.695903
0.69175
0.687793
0.684043
0.680503
0.767716
0.760483
0.75384
0.747742
0.741779
0.735981
0.730377
0.72497
0.719759
0.714744
0.709922
0.705293
0.700856
0.696612
0.692562
0.688708
0.685058
0.681608
0.767474
0.760441
0.753808
0.747759
0.741869
0.736139
0.730603
0.725266
0.72013
0.715193
0.710456
0.705918
0.701576
0.697431
0.69348
0.689724
0.686166
0.682798
0.767413
0.760518
0.7539
0.747886
0.742057
0.736392
0.730922
0.725657
0.720597
0.715742
0.711091
0.706643
0.702394
0.698342
0.694485
0.690817
0.687342
0.684047
0.767629
0.760792
0.75418
0.748185
0.742394
0.736775
0.731359
0.726156
0.721165
0.716385
0.711813
0.707447
0.703282
0.699313
0.695536
0.691945
0.688541
0.685308
0.768169
0.761223
0.754607
0.748609
0.742811
0.737198
0.731801
0.726627
0.721674
0.716937
0.712414
0.7081
0.703988
0.700072
0.696346
0.692805
0.689446
0.686255
0.768785
0.76169
0.755043
0.749011
0.743177
0.737545
0.732144
0.726977
0.722038
0.717323
0.712825
0.708539
0.704456
0.700571
0.696875
0.693362
0.69003
0.686864
0.769503
0.762203
0.755494
0.749399
0.743507
0.737841
0.732423
0.727251
0.722316
0.71761
0.713127
0.708857
0.704793
0.700927
0.69725
0.693755
0.69044
0.687291
0.770335
0.762734
0.755933
0.749752
0.743788
0.73808
0.73264
0.727457
0.72252
0.717818
0.713342
0.709082
0.705029
0.701175
0.69751
0.694028
0.690724
0.687586
0.771299
0.763258
0.75634
0.750053
0.744012
0.738262
0.732799
0.727604
0.722663
0.717962
0.71349
0.709235
0.70519
0.701343
0.697687
0.694212
0.690915
0.687786
0.772418
0.763748
0.756697
0.750293
0.744178
0.738391
0.732908
0.727704
0.722758
0.718057
0.713586
0.709336
0.705295
0.701453
0.697801
0.694332
0.69104
0.687916
0.773722
0.764171
0.756988
0.750466
0.744288
0.738474
0.732977
0.727765
0.722817
0.718115
0.713646
0.709397
0.705358
0.70152
0.697871
0.694405
0.691116
0.687997
0.775251
0.764501
0.7572
0.750572
0.744351
0.738519
0.733014
0.727798
0.722848
0.718146
0.713677
0.70943
0.705393
0.701556
0.697909
0.694445
0.691157
0.688041
0.777113
0.764715
0.757315
0.750614
0.744373
0.738536
0.733028
0.72781
0.72286
0.718158
0.713689
0.709442
0.705406
0.70157
0.697925
0.694461
0.691174
0.688059
0.779496
0.764783
0.757322
0.750603
0.744365
0.738531
0.733024
0.727807
0.722857
0.718155
0.713687
0.70944
0.705404
0.701568
0.697923
0.69446
0.691173
0.688057
0.78202
0.764681
0.757271
0.750565
0.744344
0.738516
0.733013
0.727798
0.722849
0.718147
0.713679
0.709432
0.705395
0.701559
0.697914
0.694452
0.691164
0.688046
0.612787
0.612801
0.6128
0.612775
0.612724
0.612646
0.612541
0.612408
0.612247
0.612057
0.611837
0.611589
0.61131
0.611002
0.610663
0.610294
0.609894
0.609464
0.609002
0.60851
0.607987
0.607433
0.606848
0.606233
0.605587
0.60491
0.604202
0.603465
0.602697
0.601899
0.601072
0.600216
0.59933
0.598415
0.597472
0.5965
0.5955
0.594473
0.593418
0.592335
0.591226
0.59009
0.588928
0.58774
0.586527
0.585288
0.584024
0.582735
0.581421
0.580083
0.578722
0.577336
0.575927
0.574495
0.57304
0.571563
0.570062
0.56854
0.566995
0.565429
0.563841
0.562231
0.560601
0.558949
0.557276
0.555583
0.553869
0.552134
0.550379
0.548604
0.546809
0.544994
0.543159
0.541304
0.539429
0.537535
0.535621
0.533688
0.531736
0.529764
0.527772
0.525762
0.523732
0.521683
0.519615
0.517527
0.515421
0.513295
0.51115
0.508986
0.506802
0.5046
0.502378
0.500136
0.497876
0.495596
0.493296
0.490977
0.488638
0.48628
0.483902
0.481503
0.479085
0.476647
0.474189
0.471711
0.469212
0.466693
0.464153
0.461593
0.459012
0.456411
0.453788
0.451145
0.44848
0.445795
0.443088
0.440359
0.437609
0.434837
0.432044
0.429228
0.42639
0.42353
0.420648
0.417743
0.414815
0.411864
0.40889
0.405893
0.402873
0.399829
0.396762
0.393671
0.390555
0.387416
0.384253
0.381065
0.377852
0.374614
0.371352
0.368064
0.364751
0.361412
0.358047
0.354656
0.351238
0.347795
0.344324
0.340826
0.337302
0.33375
0.33017
0.326562
0.322927
0.319263
0.315571
0.31185
0.308101
0.304322
0.300514
0.296677
0.29281
0.288914
0.284988
0.281032
0.277046
0.273031
0.268985
0.264911
0.260808
0.256676
0.252518
0.248334
0.244127
0.239901
0.235662
0.23142
0.227197
0.223016
0.612805
0.612821
0.612821
0.612795
0.612743
0.612664
0.612558
0.612424
0.612262
0.612072
0.611852
0.611603
0.611324
0.611016
0.610677
0.610307
0.609907
0.609476
0.609015
0.608522
0.607999
0.607444
0.606859
0.606243
0.605596
0.604919
0.604211
0.603474
0.602705
0.601908
0.60108
0.600223
0.599337
0.598422
0.597478
0.596506
0.595506
0.594478
0.593423
0.59234
0.591231
0.590095
0.588932
0.587744
0.58653
0.585291
0.584027
0.582737
0.581424
0.580086
0.578724
0.577338
0.575929
0.574497
0.573042
0.571564
0.570064
0.568541
0.566996
0.56543
0.563842
0.562232
0.560601
0.558949
0.557277
0.555583
0.553869
0.552134
0.550379
0.548604
0.546809
0.544993
0.543158
0.541303
0.539429
0.537535
0.535621
0.533688
0.531735
0.529763
0.527772
0.525761
0.523731
0.521682
0.519614
0.517526
0.51542
0.513294
0.511149
0.508985
0.506801
0.504599
0.502377
0.500136
0.497875
0.495595
0.493295
0.490976
0.488637
0.486279
0.483901
0.481503
0.479085
0.476647
0.474188
0.47171
0.469211
0.466692
0.464153
0.461592
0.459012
0.45641
0.453788
0.451144
0.44848
0.445794
0.443087
0.440358
0.437608
0.434837
0.432043
0.429227
0.42639
0.423529
0.420647
0.417742
0.414814
0.411863
0.408889
0.405892
0.402872
0.399828
0.396761
0.39367
0.390555
0.387415
0.384252
0.381064
0.377851
0.374614
0.371351
0.368063
0.36475
0.361411
0.358046
0.354655
0.351238
0.347794
0.344323
0.340826
0.337301
0.333749
0.330169
0.326562
0.322926
0.319263
0.31557
0.31185
0.3081
0.304322
0.300514
0.296677
0.29281
0.288913
0.284987
0.281031
0.277046
0.27303
0.268985
0.26491
0.260807
0.256675
0.252517
0.248333
0.244126
0.239899
0.23566
0.231416
0.227188
0.222991
0.612926
0.612944
0.612946
0.61292
0.612867
0.612787
0.61268
0.612545
0.612382
0.61219
0.611969
0.611718
0.611437
0.611127
0.610786
0.610414
0.610011
0.609578
0.609114
0.608619
0.608093
0.607536
0.606948
0.60633
0.60568
0.605
0.60429
0.603549
0.602778
0.601978
0.601148
0.600288
0.599399
0.598482
0.597536
0.596561
0.595559
0.594529
0.593471
0.592386
0.591275
0.590137
0.588973
0.587782
0.586567
0.585326
0.58406
0.582769
0.581453
0.580114
0.578751
0.577364
0.575953
0.57452
0.573063
0.571584
0.570083
0.568559
0.567014
0.565446
0.563857
0.562247
0.560615
0.558962
0.557289
0.555594
0.553879
0.552144
0.550389
0.548613
0.546817
0.545001
0.543166
0.54131
0.539435
0.537541
0.535626
0.533693
0.53174
0.529768
0.527776
0.525765
0.523735
0.521686
0.519617
0.517529
0.515423
0.513297
0.511151
0.508987
0.506803
0.504601
0.502379
0.500137
0.497876
0.495596
0.493296
0.490977
0.488638
0.48628
0.483902
0.481503
0.479085
0.476647
0.474189
0.47171
0.469212
0.466692
0.464153
0.461593
0.459012
0.45641
0.453788
0.451144
0.44848
0.445794
0.443087
0.440358
0.437608
0.434837
0.432043
0.429227
0.426389
0.423529
0.420647
0.417742
0.414814
0.411863
0.408889
0.405892
0.402872
0.399828
0.396761
0.39367
0.390554
0.387415
0.384252
0.381064
0.377851
0.374613
0.371351
0.368063
0.36475
0.361411
0.358046
0.354655
0.351238
0.347794
0.344323
0.340826
0.337301
0.333749
0.330169
0.326562
0.322926
0.319262
0.31557
0.31185
0.3081
0.304321
0.300514
0.296676
0.29281
0.288913
0.284987
0.281031
0.277045
0.273029
0.268984
0.264909
0.260806
0.256674
0.252515
0.24833
0.244123
0.239895
0.235653
0.231405
0.227166
0.222944
0.613164
0.613183
0.613185
0.61316
0.613106
0.613025
0.612917
0.61278
0.612614
0.61242
0.612196
0.611942
0.611658
0.611343
0.610998
0.610622
0.610216
0.609778
0.609309
0.60881
0.608279
0.607717
0.607124
0.6065
0.605845
0.60516
0.604445
0.603699
0.602923
0.602117
0.601282
0.600417
0.599524
0.598601
0.59765
0.596671
0.595664
0.59463
0.593568
0.592479
0.591363
0.590221
0.589053
0.587859
0.58664
0.585395
0.584126
0.582832
0.581514
0.580171
0.578805
0.577415
0.576002
0.574566
0.573108
0.571626
0.570123
0.568597
0.567049
0.56548
0.563889
0.562277
0.560643
0.558989
0.557314
0.555618
0.553902
0.552165
0.550409
0.548632
0.546835
0.545018
0.543181
0.541325
0.539449
0.537554
0.535639
0.533704
0.531751
0.529778
0.527785
0.525774
0.523743
0.521693
0.519624
0.517536
0.515429
0.513303
0.511157
0.508992
0.506808
0.504605
0.502383
0.500141
0.49788
0.4956
0.4933
0.49098
0.488641
0.486282
0.483904
0.481506
0.479087
0.476649
0.474191
0.471712
0.469213
0.466694
0.464154
0.461594
0.459013
0.456411
0.453789
0.451145
0.448481
0.445795
0.443088
0.440359
0.437609
0.434837
0.432043
0.429228
0.42639
0.42353
0.420647
0.417742
0.414814
0.411863
0.408889
0.405892
0.402872
0.399828
0.396761
0.39367
0.390555
0.387416
0.384252
0.381064
0.377851
0.374614
0.371351
0.368063
0.36475
0.361411
0.358046
0.354655
0.351238
0.347794
0.344324
0.340826
0.337301
0.333749
0.33017
0.326562
0.322927
0.319263
0.315571
0.31185
0.3081
0.304322
0.300514
0.296676
0.29281
0.288913
0.284987
0.281031
0.277045
0.273029
0.268983
0.264908
0.260804
0.256672
0.252512
0.248326
0.244117
0.239887
0.23564
0.231385
0.227131
0.222881
0.613516
0.613536
0.613538
0.613512
0.613457
0.613375
0.613264
0.613124
0.612956
0.612757
0.612529
0.612271
0.611982
0.611662
0.611311
0.610929
0.610516
0.610072
0.609597
0.60909
0.608552
0.607982
0.607382
0.606751
0.606088
0.605396
0.604672
0.603919
0.603135
0.602322
0.601479
0.600607
0.599707
0.598777
0.597819
0.596833
0.59582
0.594778
0.59371
0.592615
0.591494
0.590346
0.589172
0.587973
0.586748
0.585499
0.584224
0.582926
0.581603
0.580256
0.578886
0.577492
0.576075
0.574635
0.573173
0.571688
0.570181
0.568653
0.567102
0.56553
0.563936
0.562321
0.560686
0.559029
0.557352
0.555654
0.553936
0.552197
0.550439
0.54866
0.546861
0.545043
0.543205
0.541347
0.53947
0.537573
0.535657
0.533722
0.531767
0.529793
0.5278
0.525787
0.523756
0.521705
0.519636
0.517547
0.515439
0.513312
0.511166
0.509
0.506816
0.504612
0.502389
0.500147
0.497886
0.495605
0.493305
0.490985
0.488646
0.486286
0.483908
0.481509
0.479091
0.476652
0.474193
0.471715
0.469216
0.466696
0.464156
0.461596
0.459015
0.456413
0.45379
0.451147
0.448482
0.445796
0.443089
0.44036
0.43761
0.434838
0.432044
0.429229
0.426391
0.423531
0.420648
0.417743
0.414815
0.411864
0.40889
0.405893
0.402873
0.399829
0.396762
0.393671
0.390555
0.387416
0.384253
0.381065
0.377852
0.374614
0.371352
0.368064
0.364751
0.361412
0.358047
0.354656
0.351239
0.347795
0.344324
0.340827
0.337302
0.33375
0.33017
0.326563
0.322927
0.319263
0.315571
0.31185
0.308101
0.304322
0.300514
0.296677
0.29281
0.288913
0.284987
0.281031
0.277045
0.273028
0.268982
0.264907
0.260802
0.256669
0.252508
0.24832
0.244109
0.239875
0.235623
0.231358
0.227087
0.22281
0.613985
0.614005
0.614007
0.61398
0.613923
0.613838
0.613724
0.613581
0.613408
0.613205
0.612971
0.612707
0.612411
0.612084
0.611726
0.611336
0.610914
0.610461
0.609976
0.60946
0.608912
0.608333
0.607723
0.607081
0.606409
0.605706
0.604973
0.604209
0.603416
0.602592
0.60174
0.600858
0.599948
0.599009
0.598042
0.597047
0.596024
0.594975
0.593898
0.592795
0.591665
0.59051
0.589329
0.588122
0.586891
0.585635
0.584354
0.583049
0.58172
0.580368
0.578992
0.577593
0.576171
0.574727
0.57326
0.57177
0.570259
0.568726
0.567172
0.565596
0.563999
0.562381
0.560742
0.559082
0.557402
0.555701
0.55398
0.552239
0.550478
0.548697
0.546897
0.545076
0.543236
0.541377
0.539498
0.537599
0.535682
0.533745
0.531789
0.529813
0.527819
0.525805
0.523773
0.521721
0.51965
0.517561
0.515452
0.513324
0.511177
0.509011
0.506826
0.504622
0.502398
0.500155
0.497893
0.495612
0.493311
0.490991
0.488651
0.486292
0.483913
0.481514
0.479095
0.476656
0.474197
0.471718
0.469219
0.466699
0.464159
0.461599
0.459017
0.456415
0.453793
0.451149
0.448484
0.445798
0.443091
0.440362
0.437612
0.43484
0.432046
0.42923
0.426392
0.423532
0.420649
0.417744
0.414816
0.411865
0.408891
0.405894
0.402874
0.39983
0.396763
0.393671
0.390556
0.387417
0.384254
0.381066
0.377853
0.374615
0.371353
0.368065
0.364752
0.361413
0.358048
0.354657
0.35124
0.347796
0.344325
0.340828
0.337303
0.333751
0.330171
0.326564
0.322928
0.319264
0.315572
0.311851
0.308102
0.304323
0.300515
0.296677
0.292811
0.288914
0.284987
0.281031
0.277044
0.273028
0.268981
0.264905
0.2608
0.256665
0.252503
0.248313
0.244098
0.23986
0.235601
0.231326
0.227037
0.222734
0.614572
0.614592
0.614594
0.614565
0.614506
0.614418
0.614301
0.614153
0.613974
0.613765
0.613524
0.613251
0.612947
0.612611
0.612243
0.611842
0.61141
0.610946
0.61045
0.609921
0.609361
0.60877
0.608147
0.607493
0.606808
0.606092
0.605346
0.604569
0.603763
0.602928
0.602063
0.601169
0.600247
0.599296
0.598317
0.597311
0.596278
0.595217
0.59413
0.593017
0.591878
0.590713
0.589523
0.588308
0.587068
0.585803
0.584514
0.583202
0.581866
0.580506
0.579123
0.577718
0.57629
0.574839
0.573366
0.571872
0.570355
0.568817
0.567258
0.565678
0.564076
0.562454
0.560811
0.559147
0.557464
0.55576
0.554035
0.552291
0.550527
0.548744
0.54694
0.545117
0.543275
0.541413
0.539532
0.537632
0.535712
0.533773
0.531816
0.529839
0.527843
0.525828
0.523794
0.521741
0.519669
0.517578
0.515468
0.513339
0.511191
0.509024
0.506838
0.504633
0.502409
0.500166
0.497903
0.495621
0.49332
0.490999
0.488659
0.486299
0.483919
0.48152
0.479101
0.476661
0.474202
0.471723
0.469223
0.466703
0.464163
0.461602
0.459021
0.456418
0.453795
0.451151
0.448487
0.4458
0.443093
0.440364
0.437614
0.434842
0.432048
0.429232
0.426394
0.423533
0.420651
0.417745
0.414817
0.411866
0.408892
0.405895
0.402875
0.399831
0.396764
0.393673
0.390557
0.387418
0.384255
0.381067
0.377854
0.374617
0.371354
0.368066
0.364753
0.361414
0.358049
0.354658
0.351241
0.347797
0.344326
0.340829
0.337304
0.333752
0.330172
0.326565
0.322929
0.319265
0.315573
0.311852
0.308103
0.304324
0.300516
0.296678
0.292811
0.288914
0.284988
0.281031
0.277044
0.273027
0.26898
0.264903
0.260797
0.256661
0.252496
0.248304
0.244086
0.239843
0.235576
0.23129
0.226984
0.222656
0.615281
0.615301
0.615302
0.615272
0.61521
0.615118
0.614996
0.614842
0.614656
0.614439
0.614189
0.613907
0.613592
0.613244
0.612864
0.612451
0.612006
0.611528
0.611017
0.610474
0.609899
0.609292
0.608654
0.607985
0.607284
0.606553
0.605791
0.604999
0.604178
0.603327
0.602447
0.601539
0.600602
0.599638
0.598645
0.597626
0.596579
0.595506
0.594407
0.593281
0.592131
0.590954
0.589753
0.588527
0.587277
0.586003
0.584705
0.583383
0.582038
0.58067
0.57928
0.577866
0.576431
0.574973
0.573493
0.571992
0.57047
0.568926
0.567361
0.565775
0.564168
0.562541
0.560893
0.559225
0.557537
0.555829
0.554101
0.552353
0.550586
0.548799
0.546992
0.545166
0.543321
0.541457
0.539573
0.53767
0.535748
0.533807
0.531848
0.529869
0.527871
0.525854
0.523819
0.521764
0.519691
0.517598
0.515487
0.513357
0.511208
0.50904
0.506853
0.504647
0.502422
0.500178
0.497914
0.495632
0.49333
0.491008
0.488667
0.486307
0.483927
0.481527
0.479107
0.476668
0.474208
0.471728
0.469228
0.466708
0.464167
0.461606
0.459024
0.456422
0.453799
0.451155
0.44849
0.445803
0.443096
0.440367
0.437616
0.434844
0.43205
0.429234
0.426396
0.423535
0.420652
0.417747
0.414819
0.411868
0.408894
0.405897
0.402877
0.399833
0.396765
0.393674
0.390559
0.38742
0.384256
0.381068
0.377856
0.374618
0.371355
0.368068
0.364754
0.361415
0.358051
0.35466
0.351242
0.347798
0.344328
0.34083
0.337306
0.333753
0.330174
0.326566
0.322931
0.319267
0.315574
0.311854
0.308104
0.304325
0.300517
0.296679
0.292812
0.288915
0.284988
0.281031
0.277044
0.273026
0.268978
0.264901
0.260793
0.256656
0.252489
0.248294
0.244072
0.239823
0.235549
0.231251
0.226929
0.222579
0.616116
0.616136
0.616136
0.616104
0.616039
0.615942
0.615814
0.615653
0.615458
0.615231
0.614971
0.614676
0.614349
0.613987
0.613592
0.613164
0.612702
0.612207
0.611679
0.611119
0.610526
0.609901
0.609245
0.608557
0.607838
0.607088
0.606308
0.605498
0.604659
0.60379
0.602893
0.601967
0.601014
0.600033
0.599024
0.597989
0.596927
0.59584
0.594726
0.593587
0.592422
0.591233
0.590019
0.588781
0.587519
0.586233
0.584924
0.583592
0.582237
0.58086
0.579459
0.578037
0.576593
0.575127
0.57364
0.572131
0.570601
0.569051
0.567479
0.565887
0.564274
0.562641
0.560988
0.559315
0.557622
0.555909
0.554177
0.552425
0.550653
0.548862
0.547052
0.545223
0.543374
0.541507
0.53962
0.537715
0.53579
0.533847
0.531885
0.529903
0.527904
0.525885
0.523847
0.521791
0.519716
0.517622
0.51551
0.513378
0.511228
0.509059
0.50687
0.504663
0.502437
0.500192
0.497928
0.495644
0.493341
0.491019
0.488678
0.486316
0.483936
0.481535
0.479115
0.476675
0.474215
0.471734
0.469234
0.466714
0.464173
0.461611
0.459029
0.456426
0.453803
0.451159
0.448493
0.445807
0.443099
0.44037
0.437619
0.434847
0.432052
0.429236
0.426398
0.423537
0.420655
0.417749
0.414821
0.41187
0.408896
0.405899
0.402878
0.399834
0.396767
0.393676
0.390561
0.387421
0.384258
0.38107
0.377857
0.37462
0.371357
0.368069
0.364756
0.361417
0.358052
0.354661
0.351244
0.3478
0.34433
0.340832
0.337307
0.333755
0.330175
0.326568
0.322932
0.319268
0.315576
0.311855
0.308105
0.304326
0.300518
0.29668
0.292813
0.288916
0.284988
0.281031
0.277043
0.273025
0.268977
0.264898
0.260789
0.25665
0.252481
0.248284
0.244057
0.239803
0.235521
0.231212
0.226874
0.222504
0.617083
0.617103
0.617102
0.617067
0.616998
0.616895
0.616759
0.616589
0.616385
0.616146
0.615872
0.615563
0.61522
0.614842
0.614429
0.613982
0.613501
0.612986
0.612438
0.611857
0.611243
0.610597
0.609918
0.609209
0.608468
0.607697
0.606896
0.606065
0.605205
0.604316
0.603399
0.602453
0.60148
0.60048
0.599454
0.598401
0.597321
0.596217
0.595086
0.593931
0.592752
0.591547
0.590319
0.589067
0.587792
0.586494
0.585172
0.583828
0.582462
0.581073
0.579662
0.57823
0.576776
0.575301
0.573805
0.572288
0.57075
0.569191
0.567612
0.566013
0.564394
0.562755
0.561095
0.559416
0.557718
0.556
0.554262
0.552505
0.550729
0.548934
0.54712
0.545287
0.543435
0.541564
0.539674
0.537765
0.535837
0.533891
0.531926
0.529943
0.527941
0.52592
0.52388
0.521822
0.519745
0.517649
0.515535
0.513402
0.51125
0.509079
0.50689
0.504682
0.502454
0.500208
0.497943
0.495658
0.493354
0.491031
0.488689
0.486327
0.483946
0.481545
0.479124
0.476683
0.474222
0.471742
0.469241
0.46672
0.464178
0.461617
0.459034
0.456431
0.453808
0.451163
0.448497
0.445811
0.443103
0.440373
0.437622
0.43485
0.432055
0.429239
0.426401
0.42354
0.420657
0.417751
0.414823
0.411872
0.408898
0.405901
0.40288
0.399836
0.396769
0.393678
0.390563
0.387423
0.38426
0.381072
0.377859
0.374622
0.371359
0.368071
0.364758
0.361419
0.358054
0.354663
0.351246
0.347802
0.344331
0.340834
0.337309
0.333757
0.330177
0.32657
0.322934
0.31927
0.315578
0.311857
0.308107
0.304328
0.300519
0.296682
0.292814
0.288917
0.284989
0.281031
0.277043
0.273024
0.268975
0.264895
0.260785
0.256644
0.252473
0.248272
0.244041
0.239781
0.235491
0.231171
0.226819
0.222431
0.618187
0.618207
0.618205
0.618167
0.618093
0.617984
0.617839
0.617658
0.617441
0.617188
0.616898
0.616572
0.61621
0.615811
0.615378
0.614909
0.614405
0.613867
0.613294
0.612688
0.61205
0.611378
0.610675
0.609941
0.609175
0.608379
0.607554
0.606699
0.605815
0.604903
0.603963
0.602995
0.602
0.600979
0.599932
0.598858
0.597759
0.596636
0.595487
0.594314
0.593117
0.591897
0.590653
0.589385
0.588095
0.586782
0.585447
0.58409
0.582711
0.58131
0.579888
0.578444
0.57698
0.575494
0.573988
0.572462
0.570915
0.569348
0.56776
0.566153
0.564527
0.56288
0.561214
0.559529
0.557824
0.5561
0.554357
0.552595
0.550814
0.549014
0.547195
0.545358
0.543501
0.541626
0.539733
0.537821
0.53589
0.533941
0.531973
0.529986
0.527982
0.525958
0.523916
0.521856
0.519777
0.517679
0.515563
0.513428
0.511275
0.509103
0.506912
0.504702
0.502473
0.500226
0.497959
0.495674
0.493369
0.491045
0.488702
0.486339
0.483957
0.481555
0.479134
0.476692
0.474231
0.47175
0.469248
0.466727
0.464185
0.461623
0.45904
0.456437
0.453813
0.451168
0.448502
0.445815
0.443107
0.440377
0.437626
0.434853
0.432059
0.429242
0.426404
0.423543
0.42066
0.417754
0.414826
0.411875
0.4089
0.405903
0.402883
0.399839
0.396771
0.39368
0.390565
0.387426
0.384262
0.381074
0.377861
0.374624
0.371361
0.368074
0.36476
0.361421
0.358056
0.354665
0.351248
0.347804
0.344334
0.340836
0.337311
0.333759
0.330179
0.326572
0.322936
0.319272
0.31558
0.311859
0.308109
0.30433
0.300521
0.296683
0.292815
0.288918
0.28499
0.281032
0.277043
0.273024
0.268974
0.264893
0.260781
0.256638
0.252465
0.24826
0.244025
0.239759
0.235461
0.231131
0.226766
0.222361
0.619436
0.619457
0.619454
0.619412
0.619332
0.619214
0.619059
0.618865
0.618633
0.618362
0.618053
0.617706
0.617322
0.6169
0.616441
0.615946
0.615415
0.614849
0.614248
0.613614
0.612947
0.612247
0.611515
0.610752
0.609958
0.609134
0.608281
0.607398
0.606488
0.605549
0.604583
0.603591
0.602572
0.601527
0.600456
0.599361
0.59824
0.597095
0.595926
0.594734
0.593518
0.592279
0.591017
0.589733
0.588427
0.587098
0.585748
0.584376
0.582983
0.581569
0.580134
0.578678
0.577202
0.575705
0.574188
0.572651
0.571095
0.569518
0.567922
0.566306
0.564672
0.563017
0.561344
0.559651
0.55794
0.55621
0.554461
0.552693
0.550906
0.549101
0.547277
0.545435
0.543574
0.541695
0.539798
0.537882
0.535947
0.533995
0.532024
0.530034
0.528026
0.526
0.523956
0.521893
0.519812
0.517712
0.515594
0.513457
0.511302
0.509128
0.506935
0.504724
0.502494
0.500246
0.497978
0.495691
0.493385
0.49106
0.488716
0.486352
0.483969
0.481567
0.479144
0.476702
0.47424
0.471759
0.469257
0.466735
0.464192
0.46163
0.459047
0.456443
0.453818
0.451173
0.448507
0.44582
0.443111
0.440381
0.43763
0.434857
0.432062
0.429246
0.426407
0.423546
0.420663
0.417757
0.414829
0.411877
0.408903
0.405906
0.402885
0.399841
0.396774
0.393682
0.390567
0.387428
0.384265
0.381077
0.377864
0.374626
0.371364
0.368076
0.364763
0.361424
0.358059
0.354668
0.351251
0.347807
0.344336
0.340838
0.337314
0.333762
0.330182
0.326574
0.322938
0.319274
0.315582
0.311861
0.308111
0.304332
0.300523
0.296685
0.292817
0.288919
0.284991
0.281032
0.277043
0.273023
0.268972
0.26489
0.260777
0.256632
0.252456
0.248248
0.244009
0.239737
0.235432
0.231092
0.226714
0.222294
0.620841
0.620863
0.620859
0.620813
0.620725
0.620597
0.620428
0.620219
0.619968
0.619676
0.619344
0.618972
0.61856
0.61811
0.617621
0.617096
0.616533
0.615935
0.615302
0.614634
0.613934
0.613201
0.612436
0.611641
0.610815
0.609959
0.609074
0.608162
0.607221
0.606253
0.605259
0.604239
0.603193
0.602122
0.601026
0.599905
0.598761
0.597593
0.596402
0.595188
0.593952
0.592693
0.591412
0.590109
0.588785
0.587439
0.586073
0.584685
0.583277
0.581849
0.5804
0.578931
0.577442
0.575933
0.574404
0.572857
0.571289
0.569703
0.568097
0.566472
0.564828
0.563166
0.561484
0.559784
0.558066
0.556328
0.554573
0.552799
0.551006
0.549195
0.547366
0.545519
0.543653
0.54177
0.539868
0.537948
0.536009
0.534053
0.532079
0.530086
0.528075
0.526046
0.523999
0.521933
0.51985
0.517748
0.515627
0.513488
0.511331
0.509156
0.506961
0.504748
0.502517
0.500267
0.497998
0.49571
0.493403
0.491077
0.488731
0.486367
0.483983
0.481579
0.479156
0.476713
0.474251
0.471768
0.469266
0.466743
0.4642
0.461637
0.459054
0.45645
0.453825
0.451179
0.448513
0.445825
0.443116
0.440386
0.437635
0.434861
0.432067
0.42925
0.426411
0.42355
0.420666
0.41776
0.414832
0.41188
0.408906
0.405909
0.402888
0.399844
0.396777
0.393685
0.39057
0.387431
0.384267
0.381079
0.377867
0.374629
0.371367
0.368079
0.364766
0.361427
0.358062
0.354671
0.351253
0.347809
0.344339
0.340841
0.337316
0.333764
0.330184
0.326577
0.322941
0.319277
0.315584
0.311863
0.308113
0.304334
0.300525
0.296687
0.292819
0.28892
0.284992
0.281033
0.277043
0.273022
0.268971
0.264887
0.260773
0.256626
0.252447
0.248236
0.243992
0.239715
0.235402
0.231053
0.226664
0.222231
0.622414
0.622436
0.622431
0.62238
0.622284
0.622143
0.621958
0.621729
0.621455
0.621138
0.620778
0.620375
0.619931
0.619447
0.618923
0.618361
0.617761
0.617125
0.616454
0.615749
0.615011
0.61424
0.613438
0.612606
0.611744
0.610852
0.609933
0.608986
0.608013
0.607013
0.605987
0.604937
0.603861
0.602761
0.601638
0.600491
0.599321
0.598128
0.596913
0.595676
0.594417
0.593136
0.591835
0.590512
0.589169
0.587805
0.586421
0.585016
0.583592
0.582148
0.580684
0.579201
0.577698
0.576177
0.574636
0.573076
0.571497
0.5699
0.568284
0.566649
0.564996
0.563324
0.561634
0.559926
0.5582
0.556455
0.554692
0.552912
0.551113
0.549296
0.547461
0.545609
0.543738
0.541849
0.539943
0.538018
0.536076
0.534116
0.532137
0.530141
0.528127
0.526095
0.524045
0.521976
0.51989
0.517786
0.515663
0.513522
0.511363
0.509185
0.506989
0.504774
0.502541
0.50029
0.498019
0.49573
0.493421
0.491094
0.488748
0.486382
0.483997
0.481593
0.479169
0.476725
0.474262
0.471779
0.469275
0.466752
0.464209
0.461645
0.459061
0.456457
0.453831
0.451186
0.448519
0.445831
0.443122
0.440391
0.437639
0.434866
0.432071
0.429254
0.426415
0.423553
0.42067
0.417764
0.414835
0.411884
0.408909
0.405912
0.402891
0.399847
0.39678
0.393688
0.390573
0.387434
0.38427
0.381082
0.37787
0.374632
0.37137
0.368082
0.364769
0.36143
0.358065
0.354674
0.351256
0.347812
0.344342
0.340844
0.337319
0.333767
0.330187
0.326579
0.322944
0.31928
0.315587
0.311866
0.308116
0.304336
0.300527
0.296689
0.292821
0.288922
0.284993
0.281034
0.277043
0.273022
0.268969
0.264885
0.260769
0.25662
0.252439
0.248224
0.243976
0.239693
0.235374
0.231017
0.226617
0.222172
0.624169
0.624193
0.624186
0.624129
0.624022
0.623866
0.623661
0.623407
0.623106
0.622757
0.622362
0.621923
0.62144
0.620914
0.620348
0.619743
0.6191
0.618421
0.617706
0.616957
0.616176
0.615362
0.614518
0.613645
0.612742
0.611812
0.610854
0.60987
0.60886
0.607825
0.606765
0.605681
0.604573
0.603443
0.602289
0.601113
0.599916
0.598696
0.597455
0.596193
0.59491
0.593607
0.592283
0.59094
0.589576
0.588193
0.58679
0.585367
0.583926
0.582465
0.580986
0.579488
0.577971
0.576435
0.574881
0.573308
0.571718
0.570109
0.568482
0.566837
0.565174
0.563492
0.561793
0.560077
0.558342
0.55659
0.55482
0.553032
0.551226
0.549403
0.547562
0.545704
0.543828
0.541934
0.540022
0.538093
0.536147
0.534182
0.5322
0.5302
0.528182
0.526147
0.524094
0.522022
0.519933
0.517826
0.515701
0.513558
0.511396
0.509217
0.507018
0.504802
0.502567
0.500314
0.498042
0.495751
0.493441
0.491113
0.488765
0.486398
0.484012
0.481607
0.479182
0.476738
0.474274
0.47179
0.469286
0.466762
0.464218
0.461654
0.459069
0.456464
0.453839
0.451192
0.448525
0.445837
0.443128
0.440397
0.437645
0.434871
0.432076
0.429258
0.426419
0.423558
0.420674
0.417768
0.414839
0.411887
0.408913
0.405915
0.402895
0.399851
0.396783
0.393692
0.390576
0.387437
0.384274
0.381086
0.377873
0.374635
0.371373
0.368085
0.364772
0.361433
0.358068
0.354677
0.351259
0.347816
0.344345
0.340847
0.337322
0.33377
0.33019
0.326583
0.322947
0.319283
0.31559
0.311869
0.308118
0.304339
0.30053
0.296691
0.292823
0.288924
0.284995
0.281035
0.277044
0.273022
0.268968
0.264883
0.260765
0.256614
0.252431
0.248213
0.243961
0.239673
0.235347
0.230982
0.226573
0.222117
0.626186
0.626213
0.626205
0.62614
0.626018
0.625841
0.62561
0.625325
0.624986
0.624597
0.624158
0.623672
0.62314
0.622564
0.621947
0.62129
0.620594
0.619862
0.619096
0.618296
0.617464
0.616601
0.615708
0.614787
0.613839
0.612863
0.611862
0.610836
0.609785
0.60871
0.607612
0.606492
0.605349
0.604184
0.602997
0.60179
0.600561
0.599312
0.598043
0.596754
0.595445
0.594117
0.592769
0.591402
0.590016
0.588612
0.587189
0.585747
0.584287
0.582808
0.581312
0.579797
0.578265
0.576714
0.575146
0.57356
0.571956