/*--------------------------------*- C++ -*----------------------------------*\
  =========                 |
  \\      /  F ield         | OpenFOAM: The Open Source CFD Toolbox
   \\    /   O peration     | Website:  https://openfoam.org
    \\  /    A nd           | Version:  8
     \\/     M anipulation  |
\*---------------------------------------------------------------------------*/
FoamFile
{
    version     2.0;
    format      ascii;
    class       surfaceScalarField;
    location    "0.02";
    object      phi;
}
// * * * * * * * * * * * * * * * * * * * * * * * * * * * * * * * * * * * * * //

dimensions      [0 3 -1 0 0 0 0];

internalField   nonuniform List<scalar> 
24170
(
4.12161e-09
9.661e-09
2.83328e-09
1.28833e-09
2.57275e-09
2.60525e-10
2.47741e-09
9.53409e-11
2.44394e-09
3.34695e-11
2.43658e-09
7.35897e-12
2.44507e-09
-8.49036e-12
2.46535e-09
-2.02823e-11
2.49635e-09
-3.09917e-11
2.53866e-09
-4.23171e-11
2.59442e-09
-5.57612e-11
2.66767e-09
-7.32481e-11
2.76575e-09
-9.80749e-11
2.90325e-09
-1.37498e-10
3.11675e-09
-2.13503e-10
3.51771e-09
-4.00963e-10
4.51702e-09
-9.99307e-10
-5.2477e-09
9.76472e-09
9.5771e-09
1.48557e-08
7.62671e-09
3.23873e-09
6.93424e-09
9.5299e-10
6.69394e-09
3.35645e-10
6.59977e-09
1.27638e-10
6.5787e-09
2.84257e-11
6.60062e-09
-3.0409e-11
6.65484e-09
-7.44999e-11
6.73825e-09
-1.14401e-10
6.85247e-09
-1.56539e-10
7.00324e-09
-2.06531e-10
7.20158e-09
-2.71584e-10
7.46744e-09
-3.63941e-10
7.83948e-09
-5.09537e-10
8.40186e-09
-7.75877e-10
9.36563e-09
-1.36473e-09
1.13296e-08
-2.96333e-09
-8.93259e-09
1.50145e-08
1.35223e-08
1.71655e-08
1.17174e-08
5.04355e-09
1.07914e-08
1.87904e-09
1.04464e-08
6.80622e-10
1.03054e-08
2.68694e-10
1.02736e-08
6.01645e-11
1.03075e-08
-6.43432e-11
1.03911e-08
-1.58097e-10
1.05197e-08
-2.4294e-10
1.06956e-08
-3.32414e-10
1.09274e-08
-4.38336e-10
1.12315e-08
-5.75714e-10
1.16371e-08
-7.69503e-10
1.21975e-08
-1.06996e-09
1.30164e-08
-1.59478e-09
1.43034e-08
-2.65173e-09
1.64103e-08
-5.07025e-09
-1.13049e-08
1.87826e-08
1.65593e-08
1.75747e-08
1.51272e-08
6.47562e-09
1.41787e-08
2.82759e-09
1.37736e-08
1.0857e-09
1.36032e-08
4.39063e-10
1.35652e-08
9.81957e-11
1.36105e-08
-1.09674e-10
1.37196e-08
-2.67172e-10
1.38866e-08
-4.09932e-10
1.41144e-08
-5.602e-10
1.44134e-08
-7.3735e-10
1.48032e-08
-9.65509e-10
1.5317e-08
-1.28338e-09
1.60113e-08
-1.76419e-09
1.69791e-08
-2.56262e-09
1.8355e-08
-4.02762e-09
2.01968e-08
-6.91204e-09
-1.26934e-08
2.15853e-08
1.89567e-08
1.68042e-08
1.79809e-08
7.45146e-09
1.71428e-08
3.66562e-09
1.67252e-08
1.50334e-09
1.65437e-08
6.20599e-10
1.65048e-08
1.37047e-10
1.65614e-08
-1.66216e-10
1.66923e-08
-3.98081e-10
1.68911e-08
-6.08782e-10
1.71609e-08
-8.29952e-10
1.75125e-08
-1.089e-09
1.79661e-08
-1.41905e-09
1.85534e-08
-1.87068e-09
1.9322e-08
-2.5328e-09
2.03333e-08
-3.57398e-09
2.16263e-08
-5.32055e-09
2.3053e-08
-8.33877e-09
-1.33484e-08
2.3708e-08
2.09131e-08
1.53826e-08
2.03875e-08
7.97713e-09
1.97379e-08
4.31515e-09
1.93526e-08
1.88863e-09
1.91793e-08
7.93964e-10
1.91467e-08
1.69625e-10
1.92151e-08
-2.3465e-10
1.93646e-08
-5.47521e-10
1.95886e-08
-8.32767e-10
1.98897e-08
-1.13109e-09
2.02781e-08
-1.47741e-09
2.07713e-08
-1.91228e-09
2.13946e-08
-2.49396e-09
2.21784e-08
-3.31659e-09
2.31436e-08
-4.53917e-09
2.42471e-08
-6.42405e-09
2.52377e-08
-9.32939e-09
-1.34827e-08
2.53721e-08
2.25983e-08
1.36749e-08
2.24654e-08
8.10999e-09
2.20393e-08
4.74127e-09
2.17233e-08
2.20463e-09
2.15768e-08
9.40436e-10
2.15586e-08
1.87861e-10
2.16404e-08
-3.16445e-10
2.18054e-08
-7.12592e-10
2.20479e-08
-1.07519e-09
2.23694e-08
-1.45267e-09
2.2778e-08
-1.886e-09
2.32862e-08
-2.42049e-09
2.39089e-08
-3.11665e-09
2.46557e-08
-4.06333e-09
2.55093e-08
-5.39278e-09
2.63726e-08
-7.28733e-09
2.69706e-08
-9.92741e-09
-1.32672e-08
2.6755e-08
2.41509e-08
1.19139e-08
2.43313e-08
7.9295e-09
2.41318e-08
4.94077e-09
2.39114e-08
2.42507e-09
2.38083e-08
1.04358e-09
2.38126e-08
1.83516e-10
2.39098e-08
-4.13589e-10
2.40879e-08
-8.90732e-10
2.43421e-08
-1.32942e-09
2.46731e-08
-1.78362e-09
2.50852e-08
-2.29816e-09
2.55845e-08
-2.9198e-09
2.61738e-08
-3.70591e-09
2.68424e-08
-4.73195e-09
2.75444e-08
-6.09479e-09
2.81575e-08
-7.90042e-09
2.84318e-08
-1.02017e-08
-1.28289e-08
2.79935e-08
2.56764e-08
1.02344e-08
2.60885e-08
7.51749e-09
2.60985e-08
4.93077e-09
2.59889e-08
2.53464e-09
2.5942e-08
1.09044e-09
2.59765e-08
1.49056e-10
2.60911e-08
-5.28175e-10
2.62799e-08
-1.07953e-09
2.65394e-08
-1.58889e-09
2.68687e-08
-2.113e-09
2.72685e-08
-2.69789e-09
2.77372e-08
-3.3885e-09
2.8266e-08
-4.23474e-09
2.88281e-08
-5.29409e-09
2.93607e-08
-6.62737e-09
2.97394e-08
-8.27913e-09
2.97618e-08
-1.02241e-08
-1.22573e-08
2.91902e-08
2.72485e-08
8.70513e-09
2.78144e-08
6.95159e-09
2.80078e-08
4.73741e-09
2.80147e-08
2.52775e-09
2.8033e-08
1.07209e-09
2.81038e-08
7.83146e-11
2.82376e-08
-6.61992e-10
2.84346e-08
-1.27655e-09
2.86928e-08
-1.84713e-09
2.90101e-08
-2.43022e-09
2.93826e-08
-3.07042e-09
2.98022e-08
-3.80808e-09
3.02504e-08
-4.68296e-09
3.06899e-08
-5.73355e-09
3.1052e-08
-6.98953e-09
3.12256e-08
-8.45267e-09
3.106e-08
-1.00585e-08
-1.16133e-08
3.0416e-08
2.88709e-08
7.39944e-09
2.95611e-08
6.26142e-09
2.99072e-08
4.39126e-09
3.00281e-08
2.40688e-09
3.01166e-08
9.83553e-10
3.02279e-08
-3.29289e-11
3.03819e-08
-8.16041e-10
3.05844e-08
-1.47901e-09
3.08349e-08
-2.09765e-09
3.113e-08
-2.72529e-09
3.14623e-08
-3.40273e-09
3.1818e-08
-4.16382e-09
3.21723e-08
-5.03726e-09
3.24831e-08
-6.04435e-09
3.26849e-08
-7.19132e-09
3.26869e-08
-8.45466e-09
3.2386e-08
-9.75757e-09
-1.09389e-08
3.17116e-08
2.56128e-08
6.60273e-09
2.64495e-08
5.42469e-09
2.68202e-08
4.02051e-09
2.70002e-08
2.22696e-09
2.71291e-08
8.54595e-10
2.72544e-08
-1.58195e-10
2.73989e-08
-9.60528e-10
2.75708e-08
-1.65098e-09
2.77711e-08
-2.29791e-09
2.79959e-08
-2.95011e-09
2.8237e-08
-3.64379e-09
2.84797e-08
-4.40656e-09
2.87007e-08
-5.25824e-09
2.88646e-08
-6.20823e-09
2.89225e-08
-7.24925e-09
2.88152e-08
-8.34729e-09
2.84853e-08
-9.42768e-09
-1.03495e-08
2.78959e-08
3.11785e-08
5.67533e-09
3.20428e-08
4.56041e-09
3.25879e-08
3.47542e-09
3.28829e-08
1.93191e-09
3.30913e-08
6.46247e-10
3.32723e-08
-3.39168e-10
3.34547e-08
-1.143e-09
3.36514e-08
-1.84759e-09
3.38644e-08
-2.51093e-09
3.40892e-08
-3.17493e-09
3.43149e-08
-3.86948e-09
3.45232e-08
-4.61487e-09
3.4687e-08
-5.42201e-09
3.4769e-08
-6.29024e-09
3.4723e-08
-7.20326e-09
3.44992e-08
-8.12351e-09
3.40562e-08
-8.98469e-09
-9.67267e-09
3.33793e-08
3.80128e-08
4.53905e-09
3.89222e-08
3.65103e-09
3.96459e-08
2.75169e-09
4.00881e-08
1.48975e-09
4.03968e-08
3.37484e-10
4.06466e-08
-5.88918e-10
4.08721e-08
-1.36851e-09
4.10901e-08
-2.06564e-09
4.13049e-08
-2.72567e-09
4.15113e-08
-3.38135e-09
4.16966e-08
-4.05476e-09
4.18402e-08
-4.75845e-09
4.19137e-08
-5.49551e-09
4.18817e-08
-6.25827e-09
4.17049e-08
-7.02649e-09
4.13465e-08
-7.76507e-09
4.07819e-08
-8.42009e-09
-8.90537e-09
4.00146e-08
4.62406e-08
3.25144e-09
4.72776e-08
2.61399e-09
4.81691e-08
1.86023e-09
4.87774e-08
8.81445e-10
4.92044e-08
-8.95679e-11
4.95325e-08
-9.16922e-10
4.98018e-08
-1.63785e-09
5.00329e-08
-2.29671e-09
5.02321e-08
-2.92486e-09
5.03951e-08
-3.54435e-09
5.0509e-08
-4.1687e-09
5.05538e-08
-4.80325e-09
5.05035e-08
-5.44525e-09
5.03289e-08
-6.08364e-09
5.00012e-08
-6.69881e-09
4.94983e-08
-7.26215e-09
4.88117e-08
-7.73353e-09
-8.05181e-09
4.79582e-08
5.6149e-08
1.9007e-09
5.73506e-08
1.41247e-09
5.83931e-08
8.17699e-10
5.91639e-08
1.10681e-10
5.9714e-08
-6.39694e-10
6.01198e-08
-1.32269e-09
6.04249e-08
-1.94296e-09
6.06526e-08
-2.52446e-09
6.08122e-08
-3.08442e-09
6.09018e-08
-3.63392e-09
6.09113e-08
-4.17822e-09
6.08248e-08
-4.71677e-09
6.0623e-08
-5.24341e-09
6.02862e-08
-5.74683e-09
5.97984e-08
-6.211e-09
5.91515e-08
-6.61531e-09
5.83503e-08
-6.93228e-09
-7.12076e-09
5.74192e-08
6.81472e-08
5.53397e-10
6.95048e-08
5.48299e-11
7.06741e-08
-3.51586e-10
7.1578e-08
-7.9323e-10
7.22325e-08
-1.2942e-09
7.26966e-08
-1.78681e-09
7.30138e-08
-2.26009e-09
7.32098e-08
-2.72045e-09
7.32975e-08
-3.17216e-09
7.328e-08
-3.61638e-09
7.31531e-08
-4.05131e-09
7.29084e-08
-4.47213e-09
7.25363e-08
-4.8713e-09
7.20285e-08
-5.23903e-09
7.13813e-08
-5.56374e-09
7.0598e-08
-5.83206e-09
6.96921e-08
-6.02636e-09
-6.11984e-09
6.86912e-08
8.27967e-08
-8.13341e-10
8.42797e-08
-1.42816e-09
8.55441e-08
-1.616e-09
8.65345e-08
-1.78361e-09
8.72456e-08
-2.00535e-09
8.77207e-08
-2.26188e-09
8.80023e-08
-2.54168e-09
8.812e-08
-2.83813e-09
8.80921e-08
-3.1443e-09
8.79286e-08
-3.45292e-09
8.76338e-08
-3.75645e-09
8.72087e-08
-4.04703e-09
8.6654e-08
-4.31663e-09
8.59722e-08
-4.55719e-09
8.51691e-08
-4.76073e-09
8.42561e-08
-4.91903e-09
8.32509e-08
-5.02111e-09
-5.05026e-09
8.21813e-08
1.00843e-07
-2.3921e-09
1.02433e-07
-3.01839e-09
1.03771e-07
-2.95397e-09
1.04794e-07
-2.80628e-09
1.05479e-07
-2.69067e-09
1.05875e-07
-2.65779e-09
1.06034e-07
-2.70063e-09
1.05995e-07
-2.79861e-09
1.05783e-07
-2.93318e-09
1.05419e-07
-3.08874e-09
1.04915e-07
-3.25229e-09
1.04281e-07
-3.41302e-09
1.03527e-07
-3.56213e-09
1.02662e-07
-3.69237e-09
1.01699e-07
-3.79774e-09
1.00653e-07
-3.87295e-09
9.95431e-08
-3.91148e-09
-3.90456e-09
9.83974e-08
7.38161e-08
-3.54009e-09
7.50599e-08
-4.26216e-09
7.59946e-08
-3.88875e-09
7.6607e-08
-3.41861e-09
7.69434e-08
-3.02708e-09
7.70654e-08
-2.77979e-09
7.70221e-08
-2.65735e-09
7.68474e-08
-2.62388e-09
7.6564e-08
-2.64979e-09
7.61876e-08
-2.71233e-09
7.57294e-08
-2.79411e-09
7.51984e-08
-2.88205e-09
7.46027e-08
-2.96642e-09
7.39503e-08
-3.03998e-09
7.32499e-08
-3.09729e-09
7.2511e-08
-3.13413e-09
7.17455e-08
-3.14593e-09
-3.12764e-09
7.09686e-08
6.451e-08
-4.78885e-09
6.56792e-08
-5.43136e-09
6.64447e-08
-4.65428e-09
6.6848e-08
-3.82187e-09
6.69844e-08
-3.16349e-09
6.69399e-08
-2.73529e-09
6.67689e-08
-2.48633e-09
6.65036e-08
-2.35856e-09
6.61635e-08
-2.3097e-09
6.5761e-08
-2.30981e-09
6.53045e-08
-2.33769e-09
6.48009e-08
-2.37845e-09
6.42562e-08
-2.42165e-09
6.36762e-08
-2.46004e-09
6.30674e-08
-2.48846e-09
6.24366e-08
-2.50331e-09
6.17921e-08
-2.50143e-09
-2.48073e-09
6.11452e-08
5.65888e-08
-6.30554e-09
5.76999e-08
-6.54242e-09
5.82773e-08
-5.23172e-09
5.84622e-08
-4.00676e-09
5.84071e-08
-3.10839e-09
5.82177e-08
-2.54587e-09
5.79467e-08
-2.21536e-09
5.76197e-08
-2.03151e-09
5.72494e-08
-1.9394e-09
5.68428e-08
-1.90319e-09
5.64042e-08
-1.89919e-09
5.59374e-08
-1.91163e-09
5.54458e-08
-1.93e-09
5.4933e-08
-1.94728e-09
5.44033e-08
-1.9587e-09
5.38611e-08
-1.96112e-09
5.33122e-08
-1.95255e-09
-1.93395e-09
5.27654e-08
4.98287e-08
-8.19118e-09
5.08399e-08
-7.55362e-09
5.11744e-08
-5.56623e-09
5.11165e-08
-3.94886e-09
5.08782e-08
-2.87013e-09
5.05683e-08
-2.23597e-09
5.02259e-08
-1.87294e-09
4.98638e-08
-1.66944e-09
4.94857e-08
-1.56123e-09
4.90919e-08
-1.50944e-09
4.86827e-08
-1.48994e-09
4.82585e-08
-1.48743e-09
4.78205e-08
-1.49206e-09
4.73707e-08
-1.49745e-09
4.69113e-08
-1.49933e-09
4.64452e-08
-1.49499e-09
4.5976e-08
-1.48333e-09
-1.4684e-09
4.55104e-08
4.40248e-08
-1.04791e-08
4.48051e-08
-8.33397e-09
4.48131e-08
-5.57423e-09
4.44944e-08
-3.63015e-09
4.40948e-08
-2.47056e-09
4.36974e-08
-1.8386e-09
4.33152e-08
-1.49066e-09
4.29442e-08
-1.29847e-09
4.2578e-08
-1.19501e-09
4.2211e-08
-1.14248e-09
4.18397e-08
-1.11866e-09
4.14624e-08
-1.11005e-09
4.10785e-08
-1.10816e-09
4.06886e-08
-1.10758e-09
4.02939e-08
-1.10467e-09
3.9896e-08
-1.09708e-09
3.94969e-08
-1.08418e-09
-1.07281e-09
3.91013e-08
3.88946e-08
-1.30397e-08
3.92331e-08
-8.67248e-09
3.8831e-08
-5.1721e-09
3.82625e-08
-3.06167e-09
3.77451e-08
-1.95311e-09
3.73026e-08
-1.39608e-09
3.69139e-08
-1.10203e-09
3.65586e-08
-9.43126e-10
3.62214e-08
-8.57854e-10
3.58926e-08
-8.13606e-10
3.5566e-08
-7.92141e-10
3.52387e-08
-7.82707e-10
3.49092e-08
-7.78665e-10
3.45774e-08
-7.75778e-10
3.42439e-08
-7.71154e-10
3.39095e-08
-7.62668e-10
3.3575e-08
-7.49692e-10
-7.40962e-10
3.32431e-08
3.40425e-08
-1.54515e-08
3.36847e-08
-8.31471e-09
3.28336e-08
-4.32096e-09
3.20752e-08
-2.30335e-09
3.15053e-08
-1.38314e-09
3.10654e-08
-9.56173e-10
3.07028e-08
-7.39481e-10
3.03846e-08
-6.24936e-10
3.00907e-08
-5.63896e-10
2.9809e-08
-5.31951e-10
2.95328e-08
-5.15965e-10
2.92585e-08
-5.08363e-10
2.89843e-08
-5.04509e-10
2.871e-08
-5.0142e-10
2.84358e-08
-4.96982e-10
2.81625e-08
-4.89347e-10
2.78902e-08
-4.77393e-10
-4.7018e-10
2.76194e-08
2.89743e-08
-1.68898e-08
2.77089e-08
-7.04933e-09
2.64706e-08
-3.08264e-09
2.56379e-08
-1.47062e-09
2.50934e-08
-8.3871e-10
2.47026e-08
-5.65286e-10
2.43941e-08
-4.30981e-10
2.41304e-08
-3.61281e-10
2.38909e-08
-3.24353e-10
2.36639e-08
-3.04944e-10
2.3443e-08
-2.95064e-10
2.32248e-08
-2.90169e-10
2.30077e-08
-2.87485e-10
2.27915e-08
-2.85198e-10
2.25765e-08
-2.81964e-10
2.23635e-08
-2.76368e-10
2.21528e-08
-2.66679e-10
-2.59956e-10
2.19426e-08
2.31657e-08
-1.60839e-08
2.09599e-08
-4.84353e-09
1.95508e-08
-1.67348e-09
1.87976e-08
-7.17418e-10
1.8353e-08
-3.94153e-10
1.80489e-08
-2.61143e-10
1.78153e-08
-1.97409e-10
1.76188e-08
-1.64751e-10
1.74419e-08
-1.4749e-10
1.72753e-08
-1.38381e-10
1.7114e-08
-1.3369e-10
1.69551e-08
-1.31304e-10
1.67975e-08
-1.29932e-10
1.66411e-08
-1.28714e-10
1.64861e-08
-1.26978e-10
1.63336e-08
-1.23915e-10
1.61846e-08
-1.17641e-10
-1.10562e-10
1.60352e-08
1.60906e-08
-1.13061e-08
1.32689e-08
-2.02182e-09
1.20967e-08
-5.01287e-10
1.15749e-08
-1.95633e-10
1.12858e-08
-1.04994e-10
1.10936e-08
-6.89371e-11
1.09481e-08
-5.19798e-11
1.08267e-08
-4.33526e-11
1.0718e-08
-3.87874e-11
1.0616e-08
-3.63688e-11
1.05175e-08
-3.5114e-11
1.04206e-08
-3.44678e-11
1.03248e-08
-3.40904e-11
1.02298e-08
-3.37524e-11
1.01361e-08
-3.3261e-11
1.00446e-08
-3.23883e-11
9.95695e-09
-3.00271e-11
-2.50267e-11
9.87142e-09
6.86089e-09
4.83907e-09
4.33779e-09
4.14215e-09
4.03716e-09
3.96822e-09
3.91624e-09
3.87289e-09
3.8341e-09
3.79773e-09
3.76262e-09
3.72815e-09
3.69406e-09
3.66031e-09
3.62705e-09
3.59466e-09
3.56463e-09
3.53961e-09
6.38881e-11
-6.38881e-11
2.20426e-10
-1.56538e-10
4.36985e-10
-2.16559e-10
6.89235e-10
-2.5225e-10
9.61861e-10
-2.72626e-10
1.24559e-09
-2.83729e-10
1.53498e-09
-2.89393e-10
1.82691e-09
-2.91923e-10
2.11954e-09
-2.92635e-10
2.41179e-09
-2.92248e-10
2.70292e-09
-2.91134e-10
2.9924e-09
-2.89479e-10
3.27978e-09
-2.87376e-10
3.56465e-09
-2.8487e-10
3.84663e-09
-2.81986e-10
4.12538e-09
-2.78743e-10
4.40054e-09
-2.75158e-10
4.67178e-09
-2.71247e-10
4.93881e-09
-2.67029e-10
5.20134e-09
-2.62523e-10
5.45909e-09
-2.57752e-10
5.71182e-09
-2.52736e-10
5.95932e-09
-2.475e-10
6.20139e-09
-2.42066e-10
6.43785e-09
-2.36458e-10
6.66855e-09
-2.307e-10
6.89336e-09
-2.24813e-10
7.11218e-09
-2.18822e-10
7.32493e-09
-2.12746e-10
7.53154e-09
-2.06608e-10
7.73196e-09
-2.00428e-10
7.92619e-09
-1.94223e-10
8.1142e-09
-1.88013e-10
8.29601e-09
-1.81812e-10
8.47165e-09
-1.75637e-10
8.64115e-09
-1.69503e-10
8.80457e-09
-1.63421e-10
8.96198e-09
-1.57404e-10
9.11344e-09
-1.51462e-10
9.25904e-09
-1.45605e-10
9.39889e-09
-1.39841e-10
9.53306e-09
-1.34178e-10
9.66169e-09
-1.28622e-10
9.78487e-09
-1.23179e-10
9.90272e-09
-1.17853e-10
1.00154e-08
-1.12648e-10
1.01229e-08
-1.07567e-10
1.02255e-08
-1.02613e-10
1.03233e-08
-9.77867e-11
1.04164e-08
-9.30905e-11
1.05049e-08
-8.85244e-11
1.0589e-08
-8.40889e-11
1.06688e-08
-7.97835e-11
1.07444e-08
-7.56081e-11
1.0816e-08
-7.15611e-11
1.08836e-08
-6.76416e-11
1.09475e-08
-6.38484e-11
1.10077e-08
-6.01792e-11
1.10643e-08
-5.66324e-11
1.11175e-08
-5.32059e-11
1.11674e-08
-4.98972e-11
1.12141e-08
-4.67043e-11
1.12577e-08
-4.36246e-11
1.12984e-08
-4.06554e-11
1.13362e-08
-3.77942e-11
1.13712e-08
-3.50382e-11
1.14036e-08
-3.23848e-11
1.14334e-08
-2.98312e-11
1.14608e-08
-2.7375e-11
1.14858e-08
-2.50126e-11
1.15086e-08
-2.27422e-11
1.15291e-08
-2.05604e-11
1.15476e-08
-1.84645e-11
1.1564e-08
-1.64518e-11
1.15786e-08
-1.45195e-11
1.15912e-08
-1.2665e-11
1.16021e-08
-1.08851e-11
1.16113e-08
-9.17747e-12
1.16188e-08
-7.53915e-12
1.16248e-08
-5.96918e-12
1.16293e-08
-4.46931e-12
1.16323e-08
-3.05602e-12
1.16341e-08
-1.77045e-12
1.16345e-08
-3.9736e-13
1.16336e-08
8.66743e-13
1.16316e-08
2.01788e-12
1.16284e-08
3.24677e-12
1.1624e-08
4.37085e-12
1.16186e-08
5.40802e-12
1.16122e-08
6.40636e-12
1.16048e-08
7.37272e-12
1.15965e-08
8.30199e-12
1.15873e-08
9.18931e-12
1.15773e-08
1.00344e-11
1.15664e-08
1.08408e-11
1.15548e-08
1.16107e-11
1.15425e-08
1.2346e-11
1.15294e-08
1.3049e-11
1.15157e-08
1.37208e-11
1.15013e-08
1.43634e-11
1.14864e-08
1.49783e-11
1.14708e-08
1.55678e-11
1.14547e-08
1.61331e-11
1.1438e-08
1.66767e-11
1.14208e-08
1.71995e-11
1.14031e-08
1.77032e-11
1.13849e-08
1.81883e-11
1.13662e-08
1.86559e-11
1.13471e-08
1.91061e-11
1.13276e-08
1.95397e-11
1.13076e-08
1.99571e-11
1.12873e-08
2.0359e-11
1.12665e-08
2.07457e-11
1.12454e-08
2.11179e-11
1.12239e-08
2.14763e-11
1.12021e-08
2.18215e-11
1.118e-08
2.21535e-11
1.11575e-08
2.24734e-11
1.11347e-08
2.27811e-11
1.11116e-08
2.30784e-11
1.10883e-08
2.33659e-11
1.10646e-08
2.36459e-11
1.10407e-08
2.39196e-11
1.10165e-08
2.41887e-11
1.09921e-08
2.44537e-11
1.09674e-08
2.47147e-11
1.09424e-08
2.49719e-11
1.09172e-08
2.52245e-11
1.08917e-08
2.54723e-11
1.0866e-08
2.57154e-11
1.084e-08
2.59532e-11
1.08138e-08
2.61864e-11
1.07874e-08
2.64147e-11
1.07608e-08
2.66386e-11
1.07339e-08
2.68579e-11
1.07068e-08
2.7073e-11
1.06796e-08
2.72831e-11
1.06521e-08
2.74888e-11
1.06244e-08
2.76896e-11
1.05965e-08
2.78856e-11
1.05684e-08
2.80775e-11
1.05402e-08
2.82663e-11
1.05117e-08
2.84535e-11
1.04831e-08
2.86402e-11
1.04542e-08
2.88277e-11
1.04252e-08
2.90166e-11
1.0396e-08
2.92078e-11
1.03666e-08
2.94015e-11
1.0337e-08
2.95982e-11
1.03072e-08
2.97978e-11
1.02772e-08
3.00007e-11
1.0247e-08
3.02077e-11
1.02166e-08
3.04196e-11
1.01859e-08
3.06373e-11
1.01551e-08
3.08624e-11
1.0124e-08
3.10967e-11
1.00926e-08
3.13428e-11
1.0061e-08
3.16037e-11
1.00292e-08
3.18834e-11
9.99696e-09
3.2187e-11
9.96444e-09
3.25216e-11
9.93155e-09
3.28956e-11
9.89823e-09
3.33209e-11
9.86441e-09
3.38125e-11
9.83002e-09
3.43909e-11
9.79494e-09
3.50832e-11
9.75901e-09
3.59256e-11
9.72204e-09
3.69688e-11
9.68376e-09
3.82822e-11
9.6438e-09
3.99643e-11
9.60164e-09
4.21585e-11
9.55656e-09
4.50788e-11
9.5075e-09
4.90588e-11
9.45285e-09
5.46493e-11
9.39002e-09
6.28278e-11
9.31449e-09
7.5534e-11
9.2172e-09
9.72912e-11
9.07604e-09
1.41156e-10
8.83071e-09
2.45331e-10
5.99254e-10
8.23146e-09
1.23955e-10
-1.87843e-10
3.98956e-10
-4.31538e-10
7.6484e-10
-5.82443e-10
1.18496e-09
-6.7237e-10
1.63655e-09
-7.24214e-10
2.1058e-09
-7.52979e-10
2.58453e-09
-7.68123e-10
3.0679e-09
-7.75301e-10
3.55302e-09
-7.77753e-10
4.03804e-09
-7.77264e-10
4.52168e-09
-7.74781e-10
5.003e-09
-7.70796e-10
5.48119e-09
-7.65564e-10
5.95554e-09
-7.59218e-10
6.42539e-09
-7.5184e-10
6.89014e-09
-7.43488e-10
7.34919e-09
-7.34211e-10
7.802e-09
-7.24059e-10
8.24806e-09
-7.13086e-10
8.68688e-09
-7.01345e-10
9.11802e-09
-6.88893e-10
9.54108e-09
-6.75792e-10
9.95568e-09
-6.62101e-10
1.03615e-08
-6.47883e-10
1.07582e-08
-6.332e-10
1.11457e-08
-6.18114e-10
1.15235e-08
-6.02686e-10
1.18917e-08
-5.86974e-10
1.225e-08
-5.71036e-10
1.25983e-08
-5.54927e-10
1.29366e-08
-5.387e-10
1.32647e-08
-5.22404e-10
1.35828e-08
-5.06086e-10
1.38908e-08
-4.8979e-10
1.41887e-08
-4.73556e-10
1.44766e-08
-4.57421e-10
1.47546e-08
-4.4142e-10
1.50228e-08
-4.25584e-10
1.52813e-08
-4.09942e-10
1.55302e-08
-3.94517e-10
1.57697e-08
-3.79333e-10
1.59999e-08
-3.64409e-10
1.62211e-08
-3.49762e-10
1.64333e-08
-3.35408e-10
1.66368e-08
-3.21358e-10
1.68318e-08
-3.07622e-10
1.70184e-08
-2.9421e-10
1.71969e-08
-2.81127e-10
1.73675e-08
-2.68379e-10
1.75304e-08
-2.55969e-10
1.76858e-08
-2.43898e-10
1.78339e-08
-2.32169e-10
1.79748e-08
-2.2078e-10
1.8109e-08
-2.09731e-10
1.82364e-08
-1.99017e-10
1.83574e-08
-1.88639e-10
1.84722e-08
-1.7859e-10
1.85809e-08
-1.68867e-10
1.86837e-08
-1.59465e-10
1.87809e-08
-1.50378e-10
1.88726e-08
-1.41601e-10
1.8959e-08
-1.33129e-10
1.90403e-08
-1.24953e-10
1.91167e-08
-1.17069e-10
1.91884e-08
-1.09469e-10
1.92555e-08
-1.02146e-10
1.93182e-08
-9.50928e-11
1.93767e-08
-8.83035e-11
1.94311e-08
-8.17697e-11
1.94816e-08
-7.54851e-11
1.95283e-08
-6.94421e-11
1.95713e-08
-6.36339e-11
1.96109e-08
-5.80531e-11
1.96472e-08
-5.26924e-11
1.96802e-08
-4.75456e-11
1.97101e-08
-4.26052e-11
1.97371e-08
-3.78645e-11
1.97612e-08
-3.33166e-11
1.97827e-08
-2.8956e-11
1.98015e-08
-2.47761e-11
1.98178e-08
-2.07738e-11
1.98317e-08
-1.69476e-11
1.98432e-08
-1.32908e-11
1.98526e-08
-9.75928e-12
1.98598e-08
-6.3829e-12
1.9865e-08
-3.16105e-12
1.98685e-08
-2.6922e-13
1.98701e-08
2.75803e-12
1.987e-08
5.55304e-12
1.98681e-08
8.2566e-12
1.98646e-08
1.08542e-11
1.98596e-08
1.33567e-11
1.9853e-08
1.57489e-11
1.9845e-08
1.80281e-11
1.98357e-08
2.02006e-11
1.9825e-08
2.22736e-11
1.98131e-08
2.42531e-11
1.98e-08
2.61435e-11
1.97858e-08
2.79505e-11
1.97705e-08
2.96776e-11
1.97541e-08
3.13299e-11
1.97368e-08
3.29112e-11
1.97185e-08
3.44261e-11
1.96993e-08
3.58782e-11
1.96792e-08
3.72711e-11
1.96583e-08
3.8608e-11
1.96366e-08
3.9892e-11
1.96141e-08
4.11256e-11
1.95909e-08
4.23107e-11
1.9567e-08
4.34502e-11
1.95424e-08
4.45454e-11
1.95172e-08
4.55989e-11
1.94913e-08
4.66125e-11
1.94648e-08
4.75887e-11
1.94378e-08
4.85283e-11
1.94102e-08
4.94342e-11
1.9382e-08
5.03076e-11
1.93534e-08
5.11498e-11
1.93242e-08
5.19632e-11
1.92945e-08
5.27497e-11
1.92644e-08
5.35115e-11
1.92338e-08
5.42513e-11
1.92027e-08
5.49715e-11
1.91712e-08
5.56746e-11
1.91393e-08
5.63623e-11
1.9107e-08
5.70356e-11
1.90743e-08
5.76948e-11
1.90411e-08
5.83406e-11
1.90076e-08
5.89734e-11
1.89738e-08
5.95932e-11
1.89395e-08
6.0201e-11
1.89049e-08
6.07971e-11
1.88699e-08
6.13821e-11
1.88346e-08
6.19569e-11
1.8799e-08
6.25222e-11
1.8763e-08
6.30777e-11
1.87266e-08
6.36248e-11
1.86899e-08
6.41628e-11
1.86529e-08
6.46925e-11
1.86156e-08
6.52144e-11
1.85779e-08
6.57298e-11
1.854e-08
6.62396e-11
1.85017e-08
6.67463e-11
1.84631e-08
6.72512e-11
1.84241e-08
6.7757e-11
1.83849e-08
6.82646e-11
1.83453e-08
6.87756e-11
1.83054e-08
6.9291e-11
1.82652e-08
6.9812e-11
1.82247e-08
7.03399e-11
1.81838e-08
7.0876e-11
1.81426e-08
7.14228e-11
1.8101e-08
7.19819e-11
1.80591e-08
7.25577e-11
1.80168e-08
7.31535e-11
1.79741e-08
7.37751e-11
1.79311e-08
7.44287e-11
1.78875e-08
7.51233e-11
1.78435e-08
7.58697e-11
1.77991e-08
7.66825e-11
1.7754e-08
7.75804e-11
1.77083e-08
7.8587e-11
1.76619e-08
7.97345e-11
1.76146e-08
8.10649e-11
1.75664e-08
8.26331e-11
1.7517e-08
8.45141e-11
1.74661e-08
8.68079e-11
1.74134e-08
8.96523e-11
1.73584e-08
9.32373e-11
1.73006e-08
9.78336e-11
1.72389e-08
1.03832e-10
1.71722e-08
1.11814e-10
1.70985e-08
1.22686e-10
1.70153e-08
1.37924e-10
1.6918e-08
1.60109e-10
1.67993e-08
1.94176e-10
1.66458e-08
2.50788e-10
1.64306e-08
3.56391e-10
1.60922e-08
5.8369e-10
1.1513e-09
1.55402e-08
1.43102e-10
-3.30945e-10
4.58422e-10
-7.46858e-10
8.74894e-10
-9.98915e-10
1.35044e-09
-1.14791e-09
1.86e-09
-1.23377e-09
2.38866e-09
-1.28164e-09
2.92763e-09
-1.30709e-09
3.47171e-09
-1.31939e-09
4.01775e-09
-1.32379e-09
4.56371e-09
-1.32322e-09
5.10815e-09
-1.31922e-09
5.64998e-09
-1.31262e-09
6.18827e-09
-1.30386e-09
6.72221e-09
-1.29316e-09
7.25104e-09
-1.28067e-09
7.77406e-09
-1.26651e-09
8.29061e-09
-1.25076e-09
8.80007e-09
-1.23352e-09
9.30186e-09
-1.21488e-09
9.79544e-09
-1.19493e-09
1.02803e-08
-1.17378e-09
1.07561e-08
-1.15153e-09
1.12222e-08
-1.12828e-09
1.16785e-08
-1.10415e-09
1.21246e-08
-1.07924e-09
1.25601e-08
-1.05366e-09
1.29849e-08
-1.0275e-09
1.33988e-08
-1.00087e-09
1.38016e-08
-9.73868e-10
1.41933e-08
-9.46584e-10
1.45737e-08
-9.19107e-10
1.49428e-08
-8.91522e-10
1.53007e-08
-8.63906e-10
1.56472e-08
-8.36334e-10
1.59825e-08
-8.08873e-10
1.63067e-08
-7.81586e-10
1.66198e-08
-7.54529e-10
1.6922e-08
-7.27756e-10
1.72133e-08
-7.01313e-10
1.74941e-08
-6.75241e-10
1.77643e-08
-6.49579e-10
1.80243e-08
-6.24358e-10
1.82741e-08
-5.99607e-10
1.8514e-08
-5.75351e-10
1.87443e-08
-5.51609e-10
1.89651e-08
-5.284e-10
1.91766e-08
-5.05736e-10
1.93791e-08
-4.83629e-10
1.95728e-08
-4.62087e-10
1.97579e-08
-4.41115e-10
1.99348e-08
-4.20716e-10
2.01035e-08
-4.00892e-10
2.02644e-08
-3.81643e-10
2.04176e-08
-3.62965e-10
2.05634e-08
-3.44856e-10
2.07021e-08
-3.27309e-10
2.08338e-08
-3.10318e-10
2.09588e-08
-2.93877e-10
2.10773e-08
-2.77977e-10
2.11896e-08
-2.6261e-10
2.12957e-08
-2.47765e-10
2.1396e-08
-2.33432e-10
2.14907e-08
-2.19601e-10
2.15799e-08
-2.06261e-10
2.16638e-08
-1.934e-10
2.17427e-08
-1.81007e-10
2.18167e-08
-1.69071e-10
2.18859e-08
-1.57578e-10
2.19507e-08
-1.46518e-10
2.20111e-08
-1.35878e-10
2.20673e-08
-1.25646e-10
2.21195e-08
-1.15811e-10
2.21678e-08
-1.0636e-10
2.22124e-08
-9.72826e-11
2.22534e-08
-8.85656e-11
2.2291e-08
-8.01984e-11
2.23253e-08
-7.21693e-11
2.23564e-08
-6.44672e-11
2.23845e-08
-5.70818e-11
2.24098e-08
-5.00021e-11
2.24322e-08
-4.32189e-11
2.2452e-08
-3.67223e-11
2.24692e-08
-3.05001e-11
2.2484e-08
-2.45383e-11
2.24964e-08
-1.88337e-11
2.25067e-08
-1.33902e-11
2.25146e-08
-8.22288e-12
2.25206e-08
-3.26752e-12
2.2525e-08
1.16267e-12
2.25274e-08
5.86334e-12
2.2528e-08
1.03115e-11
2.25268e-08
1.45735e-11
2.25239e-08
1.86412e-11
2.25194e-08
2.25116e-11
2.25134e-08
2.61976e-11
2.25059e-08
2.97128e-11
2.24971e-08
3.30675e-11
2.2487e-08
3.62709e-11
2.24756e-08
3.93306e-11
2.2463e-08
4.2255e-11
2.24493e-08
4.50508e-11
2.24345e-08
4.7725e-11
2.24187e-08
5.02843e-11
2.24018e-08
5.27348e-11
2.2384e-08
5.50825e-11
2.23653e-08
5.7333e-11
2.23457e-08
5.94911e-11
2.23252e-08
6.15618e-11
2.2304e-08
6.3549e-11
2.2282e-08
6.54569e-11
2.22592e-08
6.72899e-11
2.22358e-08
6.90514e-11
2.22117e-08
7.07448e-11
2.21869e-08
7.23744e-11
2.21615e-08
7.39433e-11
2.21354e-08
7.54547e-11
2.21088e-08
7.69114e-11
2.20817e-08
7.83171e-11
2.2054e-08
7.96742e-11
2.20257e-08
8.09862e-11
2.1997e-08
8.22565e-11
2.19677e-08
8.34887e-11
2.1938e-08
8.46857e-11
2.19078e-08
8.58515e-11
2.18772e-08
8.69878e-11
2.18462e-08
8.80974e-11
2.18147e-08
8.91816e-11
2.17828e-08
9.02416e-11
2.17505e-08
9.12788e-11
2.17178e-08
9.22944e-11
2.16847e-08
9.32893e-11
2.16512e-08
9.42652e-11
2.16174e-08
9.52233e-11
2.15832e-08
9.61646e-11
2.15486e-08
9.709e-11
2.15137e-08
9.80012e-11
2.14784e-08
9.88986e-11
2.14428e-08
9.97835e-11
2.14068e-08
1.00656e-10
2.13705e-08
1.01518e-10
2.13339e-08
1.02371e-10
2.12969e-08
1.03217e-10
2.12596e-08
1.04058e-10
2.12219e-08
1.04896e-10
2.1184e-08
1.05734e-10
2.11456e-08
1.06574e-10
2.1107e-08
1.07418e-10
2.1068e-08
1.08268e-10
2.10287e-08
1.09127e-10
2.09891e-08
1.09997e-10
2.0949e-08
1.10881e-10
2.09087e-08
1.11782e-10
2.0868e-08
1.12705e-10
2.08269e-08
1.13655e-10
2.07854e-08
1.14641e-10
2.07435e-08
1.1567e-10
2.07012e-08
1.16755e-10
2.06584e-08
1.17911e-10
2.06151e-08
1.19156e-10
2.05713e-08
1.20516e-10
2.05268e-08
1.22021e-10
2.04817e-08
1.23715e-10
2.04358e-08
1.25652e-10
2.03889e-08
1.27903e-10
2.0341e-08
1.30564e-10
2.02917e-08
1.33762e-10
2.02409e-08
1.37671e-10
2.0188e-08
1.42526e-10
2.01326e-08
1.48652e-10
2.00739e-08
1.56511e-10
2.0011e-08
1.66768e-10
1.99424e-08
1.80407e-10
1.98661e-08
1.98947e-10
1.97792e-08
2.2483e-10
1.96771e-08
2.62228e-10
1.95525e-08
3.18805e-10
1.93933e-08
4.09974e-10
1.91798e-08
5.69883e-10
1.8883e-08
8.8051e-10
1.5145e-09
1.85198e-08
1.48599e-10
-4.79544e-10
4.78028e-10
-1.07629e-09
9.13724e-10
-1.43461e-09
1.41095e-09
-1.64514e-09
1.94324e-09
-1.76606e-09
2.49496e-09
-1.83336e-09
3.057e-09
-1.86913e-09
3.62399e-09
-1.88638e-09
4.19269e-09
-1.89249e-09
4.761e-09
-1.89153e-09
5.32745e-09
-1.88567e-09
5.89089e-09
-1.87606e-09
6.45035e-09
-1.86332e-09
7.00497e-09
-1.84778e-09
7.55396e-09
-1.82966e-09
8.09658e-09
-1.80913e-09
8.63215e-09
-1.78633e-09
9.16002e-09
-1.76139e-09
9.6796e-09
-1.73446e-09
1.01904e-08
-1.70567e-09
1.06918e-08
-1.67519e-09
1.11834e-08
-1.64316e-09
1.16649e-08
-1.60974e-09
1.21358e-08
-1.57508e-09
1.25959e-08
-1.53933e-09
1.30449e-08
-1.50266e-09
1.34826e-08
-1.4652e-09
1.39088e-08
-1.4271e-09
1.43234e-08
-1.3885e-09
1.47264e-08
-1.34953e-09
1.51176e-08
-1.31032e-09
1.5497e-08
-1.27098e-09
1.58647e-08
-1.23162e-09
1.62208e-08
-1.19235e-09
1.65651e-08
-1.15326e-09
1.6898e-08
-1.11445e-09
1.72195e-08
-1.07598e-09
1.75296e-08
-1.03793e-09
1.78287e-08
-1.00037e-09
1.81168e-08
-9.63347e-10
1.83941e-08
-9.26922e-10
1.86609e-08
-8.91135e-10
1.89173e-08
-8.56025e-10
1.91636e-08
-8.21626e-10
1.94e-08
-7.87966e-10
1.96266e-08
-7.55066e-10
1.98438e-08
-7.22947e-10
2.00518e-08
-6.91621e-10
2.02508e-08
-6.611e-10
2.04411e-08
-6.31391e-10
2.06229e-08
-6.02497e-10
2.07964e-08
-5.7442e-10
2.09619e-08
-5.47158e-10
2.11197e-08
-5.20707e-10
2.12699e-08
-4.95062e-10
2.14128e-08
-4.70214e-10
2.15486e-08
-4.46156e-10
2.16776e-08
-4.22875e-10
2.18e-08
-4.00361e-10
2.1916e-08
-3.786e-10
2.20258e-08
-3.57579e-10
2.21297e-08
-3.37283e-10
2.22278e-08
-3.17698e-10
2.23203e-08
-2.98807e-10
2.24075e-08
-2.80594e-10
2.24895e-08
-2.63043e-10
2.25666e-08
-2.46138e-10
2.26389e-08
-2.29861e-10
2.27066e-08
-2.14196e-10
2.27698e-08
-1.99126e-10
2.28288e-08
-1.84634e-10
2.28837e-08
-1.70703e-10
2.29347e-08
-1.57317e-10
2.29818e-08
-1.44458e-10
2.30254e-08
-1.3211e-10
2.30654e-08
-1.20257e-10
2.31022e-08
-1.08884e-10
2.31357e-08
-9.79737e-11
2.31661e-08
-8.7512e-11
2.31936e-08
-7.74832e-11
2.32182e-08
-6.78737e-11
2.32402e-08
-5.86684e-11
2.32595e-08
-4.98531e-11
2.32764e-08
-4.14134e-11
2.32909e-08
-3.33388e-11
2.33031e-08
-2.56244e-11
2.33132e-08
-1.82635e-11
2.33212e-08
-1.12586e-11
2.3327e-08
-4.67139e-12
2.33315e-08
1.33034e-12
2.3334e-08
7.81318e-12
2.33347e-08
1.39369e-11
2.33336e-08
1.97217e-11
2.33309e-08
2.52105e-11
2.33267e-08
3.0432e-11
2.3321e-08
3.54087e-11
2.33139e-08
4.01568e-11
2.33055e-08
4.46891e-11
2.32958e-08
4.90171e-11
2.32849e-08
5.31524e-11
2.32728e-08
5.71042e-11
2.32597e-08
6.08828e-11
2.32455e-08
6.44971e-11
2.32302e-08
6.79554e-11
2.32141e-08
7.12666e-11
2.31969e-08
7.44379e-11
2.3179e-08
7.74768e-11
2.31601e-08
8.03897e-11
2.31405e-08
8.31837e-11
2.31201e-08
8.58643e-11
2.30989e-08
8.84373e-11
2.30771e-08
9.09088e-11
2.30545e-08
9.32839e-11
2.30314e-08
9.55673e-11
2.30075e-08
9.77647e-11
2.29831e-08
9.98809e-11
2.29581e-08
1.0192e-10
2.29325e-08
1.03886e-10
2.29064e-08
1.05784e-10
2.28798e-08
1.07618e-10
2.28527e-08
1.09393e-10
2.2825e-08
1.11113e-10
2.27969e-08
1.12781e-10
2.27684e-08
1.14404e-10
2.27394e-08
1.15983e-10
2.271e-08
1.17522e-10
2.26801e-08
1.19025e-10
2.26499e-08
1.20491e-10
2.26192e-08
1.21925e-10