/*--------------------------------*- C++ -*----------------------------------*\
  =========                 |
  \\      /  F ield         | OpenFOAM: The Open Source CFD Toolbox
   \\    /   O peration     | Website:  https://openfoam.org
    \\  /    A nd           | Version:  8
     \\/     M anipulation  |
\*---------------------------------------------------------------------------*/
FoamFile
{
    version     2.0;
    format      ascii;
    class       volVectorField;
    location    "0.02";
    object      U;
}
// * * * * * * * * * * * * * * * * * * * * * * * * * * * * * * * * * * * * * //

dimensions      [0 1 -1 0 0 0 0];

internalField   nonuniform List<vector> 
12225
(
(0.0115086 0.00307984 0)
(0.0110771 0.000380979 0)
(0.00812076 2.63846e-05 0)
(0.00789608 2.22967e-05 0)
(0.00768984 6.00393e-06 0)
(0.00764199 1.76599e-06 0)
(0.00764639 -1.69739e-06 0)
(0.00769279 -4.33803e-06 0)
(0.007773 -6.96006e-06 0)
(0.00788677 -9.91833e-06 0)
(0.00803826 -1.3619e-05 0)
(0.00823654 -1.86301e-05 0)
(0.00849791 -2.59677e-05 0)
(0.0088524 -3.79484e-05 0)
(0.00936432 -6.30778e-05 0)
(0.010172 -0.000124296 0)
(0.0120914 -0.000397904 0)
(0.0181044 -0.00447753 0)
(0.0254437 0.00806289 0)
(0.0260527 0.00150596 0)
(0.0205234 0.000392152 0)
(0.0198757 0.000139823 0)
(0.0193803 5.37489e-05 0)
(0.0192508 1.22052e-05 0)
(0.0192595 -1.42055e-05 0)
(0.0193742 -3.57563e-05 0)
(0.0195751 -5.70127e-05 0)
(0.0198611 -8.11528e-05 0)
(0.0202427 -0.000111457 0)
(0.0207428 -0.000152635 0)
(0.0214031 -0.000213169 0)
(0.0222995 -0.000311881 0)
(0.0235863 -0.000502115 0)
(0.025587 -0.000964591 0)
(0.0294226 -0.00241503 0)
(0.0381962 -0.0094822 0)
(0.0334493 0.010599 0)
(0.0359724 0.00277794 0)
(0.0298212 0.000961566 0)
(0.0289016 0.000352096 0)
(0.0282339 0.000142384 0)
(0.0280478 3.31424e-05 0)
(0.0280619 -3.64435e-05 0)
(0.028227 -9.34475e-05 0)
(0.0285159 -0.000149609 0)
(0.0289269 -0.000213307 0)
(0.0294747 -0.000293187 0)
(0.0301915 -0.000401611 0)
(0.0311347 -0.000560529 0)
(0.0324065 -0.000816463 0)
(0.0342013 -0.0012864 0)
(0.0368841 -0.00230835 0)
(0.0412975 -0.00492913 0)
(0.0489838 -0.0131259 0)
(0.0377706 0.0112702 0)
(0.0422374 0.00387207 0)
(0.0365184 0.00162525 0)
(0.0355037 0.000628245 0)
(0.0347669 0.000261092 0)
(0.0345508 6.1e-05 0)
(0.0345732 -6.86646e-05 0)
(0.0347751 -0.000175401 0)
(0.0351259 -0.000280669 0)
(0.0356235 -0.000399906 0)
(0.0362845 -0.000549025 0)
(0.0371453 -0.000750496 0)
(0.0382692 -0.00104319 0)
(0.0397632 -0.00150516 0)
(0.0418108 -0.00231371 0)
(0.0446979 -0.00390932 0)
(0.0488259 -0.00738061 0)
(0.0543717 -0.0153981 0)
(0.0398649 0.0110177 0)
(0.0459106 0.00466696 0)
(0.0411182 0.0022565 0)
(0.0401583 0.000930835 0)
(0.0394385 0.000395676 0)
(0.039218 9.20078e-05 0)
(0.0392523 -0.00010993 0)
(0.0394801 -0.000277416 0)
(0.0398712 -0.000442921 0)
(0.0404227 -0.000629985 0)
(0.0411513 -0.000862798 0)
(0.0420925 -0.00117478 0)
(0.0433057 -0.00162157 0)
(0.0448833 -0.00230798 0)
(0.046961 -0.0034488 0)
(0.0496895 -0.00550388 0)
(0.0530864 -0.00939093 0)
(0.0565875 -0.0166289 0)
(0.0406391 0.0102365 0)
(0.0477771 0.0051476 0)
(0.0440684 0.00277489 0)
(0.0432731 0.0012243 0)
(0.0426401 0.000531033 0)
(0.0424411 0.000120978 0)
(0.0424925 -0.000160356 0)
(0.0427385 -0.000396198 0)
(0.0431517 -0.000629891 0)
(0.0437292 -0.00089324 0)
(0.0444851 -0.0012187 0)
(0.0454499 -0.00164974 0)
(0.0466708 -0.0022553 0)
(0.0482124 -0.00315602 0)
(0.050146 -0.004574 0)
(0.0524873 -0.00691822 0)
(0.0550111 -0.0108486 0)
(0.0569131 -0.0170681 0)
(0.0406861 0.00919823 0)
(0.048465 0.00534629 0)
(0.0457968 0.00314403 0)
(0.0452267 0.001479 0)
(0.0447307 0.000652727 0)
(0.0445763 0.000141925 0)
(0.0446507 -0.000220847 0)
(0.0449095 -0.000529157 0)
(0.0453304 -0.000835718 0)
(0.04591 -0.00117985 0)
(0.0466589 -0.00160124 0)
(0.0475987 -0.00215103 0)
(0.0487597 -0.00290569 0)
(0.0501728 -0.00398852 0)
(0.0518467 -0.00560232 0)
(0.0536963 -0.00806641 0)
(0.0553899 -0.0117885 0)
(0.0561737 -0.0169707 0)
(0.0403776 0.00807297 0)
(0.0484474 0.00531314 0)
(0.0466764 0.00335412 0)
(0.0463472 0.00167242 0)
(0.0460173 0.000747485 0)
(0.0459258 0.000148374 0)
(0.0460287 -0.000292891 0)
(0.0462966 -0.000674066 0)
(0.0467134 -0.00105462 0)
(0.0472756 -0.00147981 0)
(0.047989 -0.00199462 0)
(0.0488648 -0.00265442 0)
(0.0499143 -0.0035366 0)
(0.0511367 -0.00475515 0)
(0.0524916 -0.00647609 0)
(0.0538369 -0.00891947 0)
(0.0548339 -0.0122912 0)
(0.0548944 -0.0165244 0)
(0.039931 0.00696894 0)
(0.0480535 0.00510468 0)
(0.0470043 0.00341228 0)
(0.0468992 0.00178998 0)
(0.0467444 0.00080425 0)
(0.0467279 0.000134074 0)
(0.0468632 -0.000378216 0)
(0.0471374 -0.000828864 0)
(0.0475408 -0.0012808 0)
(0.0480699 -0.001783 0)
(0.0487253 -0.00238318 0)
(0.0495077 -0.0031371 0)
(0.0504111 -0.00411692 0)
(0.0514093 -0.00541877 0)
(0.0524314 -0.00716474 0)
(0.0533176 -0.00948549 0)
(0.0537772 -0.0124471 0)
(0.0534009 -0.0158638 0)
(0.0394599 0.00594893 0)
(0.0474853 0.0047771 0)
(0.0469897 0.00333769 0)
(0.047074 0.00182596 0)
(0.0470877 0.000815586 0)
(0.0471515 9.39192e-05 0)
(0.0473212 -0.00047849 0)
(0.047599 -0.000991816 0)
(0.0479815 -0.00150903 0)
(0.048465 -0.00208023 0)
(0.0490457 -0.00275312 0)
(0.049715 -0.00358018 0)
(0.0504533 -0.00462377 0)
(0.051218 -0.00595783 0)
(0.0519259 -0.00766176 0)
(0.0524261 -0.00979639 0)
(0.0524972 -0.0123433 0)
(0.0518773 -0.0150838 0)
(0.0390094 0.00504462 0)
(0.0468422 0.00434323 0)
(0.0467598 0.00314227 0)
(0.0469943 0.00177424 0)
(0.0471581 0.000773397 0)
(0.0473014 2.27986e-05 0)
(0.0475046 -0.000594475 0)
(0.0477831 -0.00115921 0)
(0.0481383 -0.00173109 0)
(0.0485671 -0.00235866 0)
(0.0490618 -0.00308686 0)
(0.0496072 -0.00396203 0)
(0.0501749 -0.00503403 0)
(0.0507152 -0.00635423 0)
(0.051146 -0.00796595 0)
(0.0513406 -0.00988198 0)
(0.0511461 -0.012041 0)
(0.0504091 -0.0142387 0)
(0.0386446 0.00442346 0)
(0.0463284 0.00385724 0)
(0.0465468 0.00289965 0)
(0.0468763 0.00166853 0)
(0.0471518 0.000692804 0)
(0.0473592 -6.92977e-05 0)
(0.0475879 -0.000715942 0)
(0.0478619 -0.00131801 0)
(0.0481863 -0.00193009 0)
(0.0485583 -0.00259726 0)
(0.048968 -0.00336011 0)
(0.0493963 -0.00425768 0)
(0.0498116 -0.00532771 0)
(0.050164 -0.00660292 0)
(0.0503805 -0.00810145 0)
(0.0503609 -0.00980907 0)
(0.0500038 -0.0116508 0)
(0.0492257 -0.0134454 0)
(0.0382881 0.00384994 0)
(0.0458741 0.00327949 0)
(0.0464024 0.00257032 0)
(0.0467781 0.00149257 0)
(0.0471478 0.0005644 0)
(0.0474162 -0.000189337 0)
(0.0476688 -0.000848634 0)
(0.0479375 -0.0014736 0)
(0.0482304 -0.00211187 0)
(0.0485454 -0.00280342 0)
(0.0488716 -0.00358311 0)
(0.0491888 -0.00448202 0)
(0.0494651 -0.00552645 0)
(0.0496549 -0.0067338 0)
(0.0496977 -0.00810443 0)
(0.0495184 -0.00960933 0)
(0.0490592 -0.0111723 0)
(0.0482591 -0.0126337 0)
(0.0379068 0.00321338 0)
(0.0454603 0.00268895 0)
(0.0463577 0.00213506 0)
(0.04674 0.00122873 0)
(0.0471828 0.000371916 0)
(0.0475076 -0.000356791 0)
(0.0477793 -0.00101457 0)
(0.0480369 -0.00165008 0)
(0.0482908 -0.00230229 0)
(0.0485399 -0.00300408 0)
(0.0487737 -0.00378294 0)
(0.0489729 -0.00466091 0)
(0.0491088 -0.00565302 0)
(0.0491438 -0.00676368 0)
(0.0490326 -0.00798103 0)
(0.0487241 -0.00926961 0)
(0.0481986 -0.0105596 0)
(0.0473994 -0.0117201 0)
(0.0374998 0.00244267 0)
(0.0449951 0.00204289 0)
(0.0462667 0.0015758 0)
(0.0466346 0.000848341 0)
(0.0471167 9.53003e-05 0)
(0.0474847 -0.000582589 0)
(0.0477669 -0.00121593 0)
(0.0480049 -0.00184055 0)
(0.048212 -0.00248533 0)
(0.0483881 -0.00317433 0)
(0.0485249 -0.00392643 0)
(0.0486064 -0.00475445 0)
(0.0486103 -0.00566359 0)
(0.0485093 -0.00664896 0)
(0.0482739 -0.00769256 0)
(0.0478739 -0.00875946 0)
(0.0473184 -0.00979126 0)
(0.0465436 -0.0106875 0)
(0.0371134 0.00160259 0)
(0.0444826 0.00130304 0)
(0.0460682 0.000907333 0)
(0.0464097 0.000349865 0)
(0.0468911 -0.000272795 0)
(0.0472783 -0.00087031 0)
(0.0475564 -0.00145063 0)
(0.0477642 -0.00203599 0)
(0.0479169 -0.00264468 0)
(0.0480167 -0.00329129 0)
(0.0480585 -0.00398592 0)
(0.0480318 -0.00473317 0)
(0.0479223 -0.00553101 0)
(0.047714 -0.00636951 0)
(0.0473912 -0.00722969 0)
(0.0469392 -0.00808185 0)
(0.0463868 -0.00888105 0)
(0.045657 -0.00955424 0)
(0.036787 0.000749187 0)
(0.0439854 0.000457441 0)
(0.0457889 0.000143272 0)
(0.0460906 -0.000255003 0)
(0.046532 -0.00072736 0)
(0.0469062 -0.00121277 0)
(0.0471596 -0.00170627 0)
(0.0473237 -0.00221777 0)
(0.0474152 -0.0027556 0)
(0.0474388 -0.00332548 0)
(0.0473937 -0.00392984 0)
(0.0472756 -0.00456701 0)
(0.0470784 -0.00523072 0)
(0.0467954 -0.00590966 0)
(0.0464218 -0.0065873 0)
(0.0459524 -0.00724114 0)
(0.0454274 -0.00783894 0)
(0.0447555 -0.00832952 0)
(0.0365493 -0.000104018 0)
(0.0435865 -0.000475175 0)
(0.0455105 -0.000695373 0)
(0.0457559 -0.000938231 0)
(0.0461262 -0.00124308 0)
(0.0464529 -0.00158416 0)
(0.0466566 -0.00195446 0)
(0.0467611 -0.00235478 0)
(0.0467843 -0.00278521 0)
(0.0467337 -0.00324427 0)
(0.0466127 -0.00372854 0)
(0.0464225 -0.00423238 0)
(0.0461633 -0.00474775 0)
(0.0458354 -0.00526423 0)
(0.04544 -0.00576899 0)
(0.0449772 -0.00624637 0)
(0.0444921 -0.00667438 0)
(0.0438816 -0.0070182 0)
(0.0364504 -0.00101478 0)
(0.0433976 -0.00147293 0)
(0.0453327 -0.00158135 0)
(0.0455046 -0.0016594 0)
(0.0457858 -0.0017709 0)
(0.0460318 -0.00193219 0)
(0.0461562 -0.00214258 0)
(0.0461807 -0.00239648 0)
(0.0461251 -0.00268733 0)
(0.0459995 -0.0030081 0)
(0.0458103 -0.0033513 0)
(0.0455626 -0.00370897 0)
(0.0452603 -0.00407272 0)
(0.0449072 -0.00443366 0)
(0.0445073 -0.00478234 0)
(0.0440624 -0.00510831 0)
(0.0436188 -0.00539719 0)
(0.0430679 -0.00562734 0)
(0.0366068 -0.00185616 0)
(0.0436134 -0.00238743 0)
(0.0453699 -0.00234749 0)
(0.0454672 -0.00223437 0)
(0.0456737 -0.00214443 0)
(0.0458213 -0.00212661 0)
(0.0458461 -0.00218219 0)
(0.0457788 -0.00229826 0)
(0.0456411 -0.00246175 0)
(0.0454442 -0.00266087 0)
(0.0451955 -0.00288505 0)
(0.044901 -0.00312477 0)
(0.0445656 -0.00337148 0)
(0.0441937 -0.00361734 0)
(0.0437894 -0.00385489 0)
(0.0433542 -0.0040767 0)
(0.0429301 -0.00427327 0)
(0.0424249 -0.004432 0)
(0.036845 -0.00260371 0)
(0.0440114 -0.00317287 0)
(0.0455889 -0.00293339 0)
(0.0456079 -0.00260207 0)
(0.0457303 -0.00232365 0)
(0.045772 -0.00215781 0)
(0.0456974 -0.00209496 0)
(0.0455454 -0.00211109 0)
(0.0453371 -0.00218565 0)
(0.0450827 -0.00230209 0)
(0.0447888 -0.00244708 0)
(0.0444604 -0.00260982 0)
(0.0441019 -0.0027815 0)
(0.043717 -0.0029548 0)
(0.0433091 -0.00312331 0)
(0.0428789 -0.00328122 0)
(0.0424642 -0.00342192 0)
(0.0419868 -0.00353803 0)
(0.0371822 -0.00346241 0)
(0.0446121 -0.00392218 0)
(0.0459689 -0.00340171 0)
(0.0458712 -0.00281941 0)
(0.0458733 -0.00235793 0)
(0.0457855 -0.00206818 0)
(0.0456021 -0.00191559 0)
(0.0453646 -0.00185999 0)
(0.0450899 -0.00187204 0)
(0.0447846 -0.00193045 0)
(0.0444527 -0.00201956 0)
(0.0440972 -0.00212768 0)
(0.0437208 -0.00224596 0)
(0.0433262 -0.00236752 0)
(0.0429155 -0.00248675 0)
(0.0424886 -0.00259899 0)
(0.042079 -0.00269978 0)
(0.0416223 -0.00278643 0)
(0.0376494 -0.0045251 0)
(0.0454246 -0.00462997 0)
(0.0464386 -0.00372889 0)
(0.0461528 -0.002874 0)
(0.0459853 -0.00225222 0)
(0.0457445 -0.00187442 0)
(0.0454474 -0.00166599 0)
(0.0451282 -0.00156761 0)
(0.0447944 -0.00154154 0)
(0.0444466 -0.00156285 0)
(0.0440847 -0.00161459 0)
(0.043709 -0.00168495 0)
(0.0433203 -0.00176544 0)
(0.0429199 -0.00184979 0)
(0.0425088 -0.00193311 0)
(0.0420859 -0.00201158 0)
(0.04168 -0.00208245 0)
(0.0412417 -0.00214757 0)
(0.0382551 -0.00584454 0)
(0.0463839 -0.00524376 0)
(0.0468309 -0.0038667 0)
(0.0462584 -0.00274786 0)
(0.045872 -0.00201553 0)
(0.0454658 -0.00159774 0)
(0.045061 -0.00137001 0)
(0.0446716 -0.00125601 0)
(0.0442912 -0.0012125 0)
(0.0439125 -0.00121322 0)
(0.0435308 -0.00124153 0)
(0.0431434 -0.00128643 0)
(0.0427493 -0.00134032 0)
(0.0423485 -0.00139775 0)
(0.0419414 -0.00145454 0)
(0.0415259 -0.00150746 0)
(0.0411258 -0.00155492 0)
(0.0407074 -0.00160295 0)
(0.0389218 -0.00741099 0)
(0.0472394 -0.00565514 0)
(0.046784 -0.00375257 0)
(0.0458261 -0.00243386 0)
(0.0451941 -0.00167022 0)
(0.0446336 -0.00126693 0)
(0.0441425 -0.00105403 0)
(0.0437037 -0.000946621 0)
(0.0432945 -0.000901149 0)
(0.0429001 -0.000893048 0)
(0.0425113 -0.000907648 0)
(0.0421229 -0.000935663 0)
(0.0417324 -0.000970842 0)
(0.041339 -0.00100874 0)
(0.0409427 -0.00104589 0)
(0.040541 -0.00107948 0)
(0.0401524 -0.00110833 0)
(0.039759 -0.0011418 0)
(0.0393658 -0.00909657 0)
(0.0474022 -0.00570676 0)
(0.0456486 -0.0033323 0)
(0.0442612 -0.00195204 0)
(0.0434062 -0.00125589 0)
(0.0427345 -0.000917235 0)
(0.0421953 -0.000745022 0)
(0.0417367 -0.000658972 0)
(0.0413224 -0.000621156 0)
(0.0409315 -0.000611504 0)
(0.0405516 -0.000618609 0)
(0.0401761 -0.00063547 0)
(0.0398016 -0.000657436 0)
(0.0394269 -0.000681184 0)
(0.0390516 -0.000704028 0)
(0.0386738 -0.000723446 0)
(0.0383071 -0.000737981 0)
(0.0379478 -0.000758616 0)
(0.0389176 -0.0105581 0)
(0.0458323 -0.00521996 0)
(0.0424864 -0.00259868 0)
(0.0407499 -0.00136294 0)
(0.0397641 -0.000827348 0)
(0.0390569 -0.000586376 0)
(0.0385218 -0.000468025 0)
(0.0380811 -0.000409724 0)
(0.0376907 -0.000383739 0)
(0.0373271 -0.000376165 0)
(0.036977 -0.000379389 0)
(0.036633 -0.000388829 0)
(0.0362917 -0.000401457 0)
(0.0359516 -0.000415074 0)
(0.0356128 -0.000427812 0)
(0.0352737 -0.000437571 0)
(0.0349442 -0.000442201 0)
(0.0346327 -0.000451657 0)
(0.0362902 -0.011093 0)
(0.0410404 -0.0040691 0)
(0.0362211 -0.00165195 0)
(0.0343927 -0.000770866 0)
(0.0334348 -0.000446354 0)
(0.0327908 -0.000309569 0)
(0.0323214 -0.000244223 0)
(0.0319419 -0.000212439 0)
(0.0316096 -0.000198168 0)
(0.0313023 -0.000193717 0)
(0.031008 -0.000194972 0)
(0.0307198 -0.000199485 0)
(0.0304348 -0.000205637 0)
(0.0301516 -0.000212223 0)
(0.0298704 -0.000218164 0)
(0.0295906 -0.000222013 0)
(0.0293193 -0.000221115 0)
(0.0290731 -0.000220941 0)
(0.0292136 -0.00912422 0)
(0.0311423 -0.00235817 0)
(0.025847 -0.000734648 0)
(0.0243588 -0.000304258 0)
(0.0236275 -0.000170328 0)
(0.0231549 -0.000116594 0)
(0.0228176 -9.14734e-05 0)
(0.0225474 -7.93778e-05 0)
(0.0223122 -7.39189e-05 0)
(0.0220957 -7.2149e-05 0)
(0.0218889 -7.25139e-05 0)
(0.0216869 -7.4092e-05 0)
(0.0214875 -7.62718e-05 0)
(0.0212898 -7.85895e-05 0)
(0.0210941 -8.06079e-05 0)
(0.0209003 -8.16472e-05 0)
(0.0207137 -7.94027e-05 0)
(0.0205532 -7.40401e-05 0)
(0.0141587 -0.00356398 0)
(0.0139787 -0.000633316 0)
(0.010666 -8.14315e-05 0)
(0.0100197 -4.09074e-05 0)
(0.00971087 -2.22339e-05 0)
(0.00951467 -1.4863e-05 0)
(0.00937589 -1.15381e-05 0)
(0.00926487 -9.9186e-06 0)
(0.00916837 -9.16059e-06 0)
(0.00907961 -8.87969e-06 0)
(0.00899492 -8.87301e-06 0)
(0.0089123 -9.01997e-06 0)
(0.00883077 -9.24071e-06 0)
(0.00875001 -9.47341e-06 0)
(0.00867018 -9.62808e-06 0)
(0.00859122 -9.69536e-06 0)
(0.0085156 -9.49854e-06 0)
(0.00845647 -6.99706e-06 0)
(1.82345e-05 -4.15178e-05 7.71306e-21)
(0.000117353 -9.7069e-05 -9.73474e-21)
(0.000282816 -0.000131483 0)
(0.000494173 -0.000151125 0)
(0.000730047 -0.000161787 0)
(0.000978917 -0.000167015 9.74103e-21)
(0.00123474 -0.000169041 0)
(0.00149408 -0.000169245 0)
(0.00175491 -0.000168424 0)
(0.00201603 -0.000167008 0)
(0.00227668 -0.000165218 -9.72442e-21)
(0.00253631 -0.000163161 0)
(0.00279451 -0.000160889 0)
(0.0030509 -0.000158428 0)
(0.00330513 -0.000155793 0)
(0.00355689 -0.000152996 -9.68195e-21)
(0.00380585 -0.000150047 0)
(0.00405172 -0.000146958 0)
(0.00429421 -0.000143741 0)
(0.00453305 -0.000140409 0)
(0.004768 -0.000136977 0)
(0.00499882 -0.000133458 0)
(0.0052253 -0.000129866 0)
(0.00544725 -0.000126215 -9.56131e-21)
(0.0056645 -0.00012252 9.5418e-21)
(0.0058769 -0.000118793 -9.52134e-21)
(0.00608432 -0.000115047 -9.49993e-21)
(0.00628665 -0.000111295 0)
(0.0064838 -0.000107548 0)
(0.0066757 -0.000103816 9.4301e-21)
(0.00686229 -0.000100111 9.405e-21)
(0.00704355 -9.644e-05 0)
(0.00721944 -9.2813e-05 0)
(0.00738998 -8.92371e-05 9.32437e-21)
(0.00755515 -8.57191e-05 0)
(0.007715 -8.2265e-05 0)
(0.00786955 -7.88803e-05 -9.236e-21)
(0.00801886 -7.55693e-05 0)
(0.00816297 -7.23361e-05 -9.17294e-21)
(0.00830196 -6.91837e-05 -1.82804e-20)
(0.00843589 -6.6115e-05 0)
(0.00856485 -6.31318e-05 0)
(0.00868893 -6.02358e-05 0)
(0.00880821 -5.74279e-05 0)
(0.00892281 -5.47089e-05 0)
(0.00903281 -5.20788e-05 -1.78555e-20)
(0.00913832 -4.95376e-05 -1.77795e-20)
(0.00923946 -4.70848e-05 -1.77022e-20)
(0.00933632 -4.47196e-05 0)
(0.00942902 -4.24411e-05 1.75434e-20)
(0.00951768 -4.02479e-05 0)
(0.0096024 -3.81388e-05 -1.73794e-20)
(0.00968331 -3.61121e-05 -1.72955e-20)
(0.0097605 -3.4166e-05 0)
(0.00983409 -3.22988e-05 0)
(0.0099042 -3.05086e-05 0)
(0.00997094 -2.87932e-05 -1.69478e-20)
(0.0100344 -2.71508e-05 0)
(0.0100947 -2.5579e-05 0)
(0.010152 -2.40758e-05 0)
(0.0102063 -2.26391e-05 0)
(0.0102577 -2.12666e-05 0)
(0.0103064 -1.99563e-05 0)
(0.0103525 -1.87058e-05 0)
(0.010396 -1.7513e-05 0)
(0.0104371 -1.63758e-05 1.61018e-20)
(0.0104758 -1.52921e-05 0)
(0.0105122 -1.42597e-05 0)
(0.0105464 -1.32764e-05 -1.58028e-20)
(0.0105785 -1.23403e-05 -1.57014e-20)
(0.0106086 -1.14492e-05 0)
(0.0106367 -1.06009e-05 1.54962e-20)
(0.010663 -9.79338e-06 -1.53925e-20)
(0.0106875 -9.02426e-06 0)
(0.0107102 -8.29124e-06 1.5183e-20)
(0.0107313 -7.59169e-06 0)
(0.0107508 -6.92268e-06 0)
(0.0107688 -6.28063e-06 -1.48636e-20)
(0.0107854 -5.66117e-06 0)
(0.0108005 -5.0585e-06 1.46475e-20)
(0.0108143 -4.46547e-06 0)
(0.0108269 -3.87899e-06 -1.44293e-20)
(0.0108383 -3.32606e-06 -1.43193e-20)
(0.0108485 -2.87641e-06 -1.42089e-20)
(0.0108576 -2.49272e-06 -2.81959e-20)
(0.0108657 -2.17417e-06 2.79731e-20)
(0.0108727 -1.95937e-06 0)
(0.0108787 -1.72767e-06 0)
(0.0108838 -1.48674e-06 0)
(0.010888 -1.23618e-06 2.70736e-20)
(0.0108914 -9.90709e-07 2.68469e-20)
(0.010894 -7.55681e-07 -2.66195e-20)
(0.0108958 -5.33139e-07 0)
(0.0108969 -3.2259e-07 2.61628e-20)
(0.0108973 -1.23359e-07 2.59336e-20)
(0.010897 6.48617e-08 2.57039e-20)
(0.0108961 2.42201e-07 0)
(0.0108946 4.08847e-07 0)
(0.0108925 5.65111e-07 0)
(0.0108899 7.11401e-07 2.47805e-20)
(0.0108867 8.48233e-07 0)
(0.0108831 9.76173e-07 0)
(0.010879 1.09584e-06 -2.40842e-20)
(0.0108744 1.20782e-06 0)
(0.0108694 1.31266e-06 0)
(0.010864 1.4108e-06 -2.33857e-20)
(0.0108582 1.50259e-06 0)
(0.0108521 1.58827e-06 0)
(0.0108455 1.66808e-06 2.26858e-20)
(0.0108386 1.74219e-06 2.24523e-20)
(0.0108314 1.81082e-06 0)
(0.0108239 1.87418e-06 -2.19853e-20)
(0.0108161 1.93253e-06 0)
(0.010808 1.98611e-06 2.15184e-20)
(0.0107996 2.03516e-06 0)
(0.0107909 2.07987e-06 2.10519e-20)
(0.010782 2.12043e-06 2.08188e-20)
(0.0107728 2.157e-06 0)
(0.0107635 2.18976e-06 0)
(0.0107539 2.21899e-06 0)
(0.0107441 2.24508e-06 0)
(0.010734 2.26853e-06 0)
(0.0107238 2.28988e-06 0)
(0.0107135 2.30956e-06 0)
(0.0107029 2.32784e-06 1.8962e-20)
(0.0106921 2.34483e-06 -1.87313e-20)
(0.0106812 2.36048e-06 0)
(0.0106701 2.37469e-06 0)
(0.0106589 2.38739e-06 0)
(0.0106474 2.39853e-06 0)
(0.0106358 2.40814e-06 -3.51667e-20)
(0.0106241 2.41626e-06 0)
(0.0106122 2.42299e-06 3.42547e-20)
(0.0106002 2.4284e-06 -3.38002e-20)
(0.010588 2.43256e-06 0)
(0.0105757 2.43549e-06 0)
(0.0105632 2.4372e-06 0)
(0.0105506 2.43767e-06 3.19931e-20)
(0.0105379 2.43686e-06 3.15441e-20)
(0.0105251 2.43477e-06 0)
(0.0105122 2.43151e-06 3.065e-20)
(0.0104991 2.4273e-06 3.02048e-20)
(0.010486 2.42242e-06 -2.97609e-20)
(0.0104727 2.4172e-06 0)
(0.0104594 2.41191e-06 0)
(0.0104459 2.40677e-06 -2.84372e-20)
(0.0104323 2.40189e-06 0)
(0.0104186 2.39734e-06 0)
(0.0104048 2.39316e-06 0)
(0.0103909 2.38936e-06 0)
(0.0103768 2.38602e-06 2.62592e-20)
(0.0103626 2.38323e-06 2.5828e-20)
(0.0103483 2.38115e-06 0)
(0.0103339 2.37995e-06 2.49703e-20)
(0.0103193 2.37989e-06 0)
(0.0103046 2.3813e-06 0)
(0.0102897 2.3846e-06 2.36955e-20)
(0.0102746 2.3903e-06 0)
(0.0102593 2.39908e-06 2.28538e-20)
(0.0102438 2.4118e-06 0)
(0.0102281 2.42959e-06 0)
(0.0102121 2.45391e-06 2.16037e-20)
(0.0101958 2.48663e-06 0)
(0.010179 2.53024e-06 2.07788e-20)
(0.0101618 2.58803e-06 0)
(0.0101441 2.66436e-06 0)
(0.0101256 2.76512e-06 0)
(0.0101062 2.89833e-06 -1.91506e-20)
(0.0100857 3.07514e-06 0)
(0.0100637 3.31126e-06 1.83478e-20)
(0.0100398 3.62951e-06 0)
(0.0100132 4.06401e-06 0)
(0.0099832 4.66801e-06 0)
(0.00994827 5.52945e-06 0)
(0.00990628 6.80497e-06 0)
(0.00985363 8.80567e-06 0)
(0.00978359 1.22789e-05 0)
(0.00968177 1.9587e-05 -3.04564e-20)
(0.00952049 3.47771e-05 0)
(0.00902267 0.000129223 0)
(3.13021e-05 -0.000228682 -2.42438e-20)
(0.000215989 -0.000529924 3.09941e-20)
(0.000501863 -0.000715851 0)
(0.000856299 -0.000823779 -2.06885e-20)
(0.00124782 -0.00088253 0)
(0.00165961 -0.000911622 -1.03507e-20)
(0.00208272 -0.000923428 2.0708e-20)
(0.00251195 -0.000925332 2.07101e-20)
(0.00294412 -0.00092153 0)
(0.00337727 -0.000914311 2.07077e-20)
(0.00381008 -0.00090488 1.03505e-20)
(0.00424162 -0.000893857 0)
(0.00467112 -0.000881563 0)
(0.00509792 -0.000868173 0)
(0.00552142 -0.000853795 0)
(0.00594105 -0.000838512 1.03234e-20)
(0.00635629 -0.000822398 0)
(0.00676661 -0.000805523 -2.0612e-20)
(0.00717156 -0.000787962 0)
(0.00757067 -0.00076979 0)
(0.00796354 -0.000751084 2.05412e-20)
(0.00834977 -0.000731921 0)
(0.00872901 -0.00071238 -2.04838e-20)
(0.00910095 -0.000692535 1.02252e-20)
(0.0094653 -0.000672461 -1.02083e-20)
(0.00982181 -0.000652229 1.01905e-20)
(0.0101703 -0.00063191 1.01716e-20)
(0.0105105 -0.000611567 0)
(0.0108423 -0.000591263 0)
(0.0111656 -0.000571056 -1.01093e-20)
(0.0114803 -0.000550997 1.00879e-20)
(0.0117863 -0.000531138 0)
(0.0120837 -0.000511521 0)
(0.0123723 -0.000492189 -1.00131e-20)
(0.0126522 -0.000473176 0)
(0.0129234 -0.000454514 0)
(0.013186 -0.000436232 9.9314e-21)
(0.0134401 -0.000418353 0)
(0.0136857 -0.000400898 -9.87345e-21)
(0.0139229 -0.000383884 1.96837e-20)
(0.0141519 -0.000367323 0)
(0.0143728 -0.000351227 0)
(0.0145857 -0.000335603 3.89806e-20)
(0.0147908 -0.000320457 3.88446e-20)
(0.0149882 -0.000305792 3.87054e-20)
(0.0151781 -0.000291608 -1.92822e-20)
(0.0153606 -0.000277904 1.92083e-20)
(0.015536 -0.000264678 5.74034e-20)
(0.0157044 -0.000251925 -3.81179e-20)
(0.015866 -0.00023964 -1.89813e-20)
(0.0160209 -0.000227816 0)
(0.0161694 -0.000216445 1.88227e-20)
(0.0163116 -0.000205519 -1.87421e-20)
(0.0164477 -0.000195027 0)
(0.0165779 -0.000184961 0)
(0.0167024 -0.00017531 0)
(0.0168213 -0.000166063 1.8402e-20)
(0.0169349 -0.000157209 0)
(0.0170432 -0.000148737 -3.64498e-20)
(0.0171466 -0.000140635 0)
(0.017245 -0.000132891 -3.6085e-20)
(0.0173388 -0.000125494 0)
(0.0174281 -0.000118432 3.57107e-20)
(0.0175129 -0.000111695 0)
(0.0175936 -0.000105269 -3.53273e-20)
(0.0176702 -9.9145e-05 1.75663e-20)
(0.0177429 -9.33106e-05 0)
(0.0178118 -8.77551e-05 3.4736e-20)
(0.0178772 -8.24676e-05 1.72672e-20)
(0.017939 -7.74375e-05 1.71656e-20)
(0.0179975 -7.26543e-05 0)
(0.0180527 -6.81078e-05 1.69597e-20)
(0.0181049 -6.37879e-05 1.68549e-20)
(0.0181541 -5.96844e-05 0)
(0.0182005 -5.57874e-05 -1.66433e-20)
(0.0182441 -5.20871e-05 3.30725e-20)
(0.0182851 -4.85732e-05 0)
(0.0183236 -4.52353e-05 1.63195e-20)
(0.0183597 -4.20625e-05 0)
(0.0183934 -3.90433e-05 -4.82989e-20)
(0.018425 -3.61663e-05 0)
(0.0184545 -3.34251e-05 4.76303e-20)
(0.0184819 -3.08353e-05 1.57642e-20)
(0.0185074 -2.84438e-05 -1.56512e-20)
(0.018531 -2.62169e-05 -3.10746e-20)
(0.0185529 -2.41398e-05 3.08457e-20)
(0.0185732 -2.22392e-05 0)
(0.0185919 -2.05413e-05 0)
(0.0186092 -1.89761e-05 0)
(0.0186249 -1.74291e-05 -8.97533e-20)
(0.0186393 -1.59254e-05 -2.9683e-20)
(0.0186523 -1.44929e-05 2.94473e-20)
(0.018664 -1.31443e-05 0)
(0.0186745 -1.18798e-05 2.89731e-20)
(0.0186838 -1.06943e-05 -2.87345e-20)
(0.018692 -9.58278e-06 -2.84952e-20)
(0.0186992 -8.54111e-06 0)
(0.0187054 -7.56559e-06 0)
(0.0187106 -6.65259e-06 0)
(0.0187149 -5.79854e-06 -2.75301e-20)
(0.0187184 -4.99989e-06 0)
(0.0187211 -4.25313e-06 5.40868e-20)
(0.018723 -3.55484e-06 8.03975e-20)
(0.0187242 -2.90186e-06 -5.31087e-20)
(0.0187246 -2.29127e-06 0)
(0.0187244 -1.72053e-06 -2.60632e-20)
(0.0187236 -1.18746e-06 0)
(0.0187222 -6.90156e-07 -5.11406e-20)
(0.0187202 -2.2691e-07 2.53232e-20)
(0.0187177 2.03884e-07 2.50758e-20)
(0.0187147 6.03796e-07 0)
(0.0187112 9.74394e-07 7.37405e-20)
(0.0187072 1.31724e-06 -4.86638e-20)
(0.0187028 1.63382e-06 -2.40835e-20)
(0.018698 1.92557e-06 0)
(0.0186927 2.19382e-06 -2.3586e-20)
(0.0186871 2.43982e-06 -7.00113e-20)
(0.0186812 2.6648e-06 0)
(0.0186749 2.87014e-06 -4.5678e-20)
(0.0186682 3.05735e-06 -4.51798e-20)
(0.0186613 3.22826e-06 -4.46815e-20)
(0.018654 3.38478e-06 0)
(0.0186465 3.52881e-06 0)
(0.0186387 3.66187e-06 0)
(0.0186306 3.78504e-06 2.13447e-20)
(0.0186223 3.89885e-06 2.10959e-20)
(0.0186137 4.0035e-06 0)
(0.018605 4.09908e-06 4.11976e-20)
(0.018596 4.18563e-06 4.0701e-20)
(0.0185868 4.26333e-06 0)
(0.0185773 4.33252e-06 3.97094e-20)
(0.0185677 4.39355e-06 7.84285e-20)
(0.0185579 4.4469e-06 -3.87198e-20)
(0.0185479 4.49296e-06 -3.82258e-20)
(0.0185378 4.5321e-06 0)
(0.0185274 4.56459e-06 0)
(0.0185169 4.59065e-06 0)
(0.0185062 4.61042e-06 -3.62575e-20)
(0.0184954 4.6242e-06 3.57673e-20)
(0.0184844 4.63237e-06 7.0556e-20)
(0.0184733 4.63565e-06 -3.47897e-20)
(0.018462 4.63502e-06 3.43022e-20)
(0.0184506 4.63163e-06 3.38157e-20)
(0.018439 4.62669e-06 0)
(0.0184273 4.62122e-06 0)
(0.0184154 4.61599e-06 -3.23623e-20)
(0.0184034 4.61154e-06 0)
(0.0183912 4.60822e-06 0)
(0.0183789 4.60637e-06 6.18375e-20)
(0.0183665 4.60633e-06 0)
(0.0183539 4.60857e-06 2.99622e-20)
(0.0183411 4.61376e-06 -2.94858e-20)
(0.0183282 4.62276e-06 0)
(0.0183151 4.63672e-06 2.85366e-20)
(0.0183019 4.65708e-06 0)
(0.0182884 4.68569e-06 0)
(0.0182747 4.7249e-06 -2.71229e-20)
(0.0182608 4.77772e-06 5.33087e-20)
(0.0182466 4.84797e-06 -2.61873e-20)
(0.018232 4.94058e-06 0)
(0.0182172 5.06189e-06 0)
(0.0182019 5.22012e-06 2.47946e-20)
(0.0181861 5.42598e-06 0)
(0.0181697 5.69349e-06 2.38736e-20)
(0.0181526 6.04116e-06 0)
(0.0181345 6.49363e-06 0)
(0.0181152 7.08403e-06 0)
(0.0180945 7.85746e-06 2.20509e-20)
(0.0180719 8.87634e-06 0)
(0.0180467 1.02286e-05 -2.11497e-20)
(0.0180183 1.20415e-05 0)
(0.0179855 1.45046e-05 0)
(0.0179466 1.79124e-05 3.96239e-20)
(0.0178994 2.27479e-05 -3.87406e-20)
(0.0178402 2.98636e-05 0)
(0.017763 4.09214e-05 0)
(0.0176575 5.96507e-05 0)
(0.0175036 9.5988e-05 1.05794e-19)
(0.0172705 0.00017955 0)
(0.0167361 0.000411545 -6.7109e-20)
(3.52133e-05 -0.000486849 -4.72937e-24)
(0.000248686 -0.00109716 -4.13187e-20)
(0.000575363 -0.00146158 0)
(0.000977632 -0.00167046 4.13585e-20)
(0.00142004 -0.00178412 0)
(0.00188427 -0.00184081 0)
(0.00236075 -0.00186424 6.05896e-24)
(0.00284392 -0.0018684 -2.06919e-20)
(0.00333038 -0.00186126 -2.06966e-20)
(0.00381794 -0.00184719 -2.06872e-20)
(0.00430516 -0.00182854 0)
(0.00479096 -0.00180656 0)
(0.00527446 -0.0017819 2.06697e-20)
(0.00575491 -0.00175494 4.13154e-20)
(0.0062316 -0.00172594 -4.1287e-20)
(0.0067039 -0.00169507 0)
(0.00717118 -0.00166251 -4.12177e-20)
(0.00763288 -0.0016284 2.05833e-20)
(0.00808847 -0.00159291 0)
(0.00853743 -0.00155619 -4.10827e-20)
(0.00897931 -0.00151841 -2.051e-20)
(0.00941367 -0.00147972 4.09723e-20)
(0.00984013 -0.00144027 2.04511e-20)
(0.0102583 -0.00140023 0)
(0.010668 -0.00135973 -4.07768e-20)
(0.0110688 -0.00131894 -4.07037e-20)
(0.0114606 -0.00127798 0)
(0.0118431 -0.00123699 -4.05461e-20)
(0.0122161 -0.0011961 0)
(0.0125797 -0.0011554 -4.03734e-20)
(0.0129335 -0.00111502 -2.01373e-20)
(0.0132777 -0.00107505 0)
(0.0136122 -0.00103558 0)
(0.0139369 -0.000996689 0)
(0.0142519 -0.000958448 0)
(0.0145572 -0.00092092 0)
(0.014853 -0.000884162 0)
(0.0151392 -0.000848219 -3.95374e-20)
(0.0154159 -0.000813132 5.91235e-20)
(0.0156834 -0.000778934 0)
(0.0159417 -0.000745651 0)
(0.016191 -0.000713304 0)
(0.0164315 -0.000681908 3.9874e-24)
(0.0166632 -0.000651473 -3.87635e-20)
(0.0168864 -0.000622005 -7.72519e-20)
(0.0171013 -0.000593503 7.69668e-20)
(0.0173081 -0.000565967 3.83395e-20)
(0.0175068 -0.000539389 -3.81877e-20)
(0.0176979 -0.000513762 -2.9434e-24)
(0.0178813 -0.000489073 -3.78848e-20)
(0.0180575 -0.00046531 0)
(0.0182264 -0.000442455 -3.75673e-20)
(0.0183884 -0.000420492 -2.37514e-24)
(0.0185437 -0.000399403 0)
(0.0186923 -0.000379166 0)
(0.0188347 -0.000359761 3.68995e-20)
(0.0189709 -0.000341167 0)
(0.0191011 -0.000323361 0)
(0.0192256 -0.00030632 -3.6373e-20)
(0.0193445 -0.000290022 -7.23807e-20)
(0.019458 -0.000274443 3.60055e-20)
(0.0195664 -0.00025956 0)
(0.0196697 -0.000245351 -3.56319e-20)
(0.0197681 -0.000231791 0)
(0.0198619 -0.000218858 -3.52516e-20)
(0.0199512 -0.000206531 -3.50547e-20)
(0.0200362 -0.000194785 6.9718e-20)
(0.020117 -0.000183601 3.46612e-20)
(0.0201938 -0.000172956 0)
(0.0202667 -0.000162829 -6.85129e-20)
(0.0203359 -0.0001532 0)
(0.0204015 -0.000144049 -1.01534e-19)
(0.0204638 -0.000135357 -6.72731e-20)
(0.0205227 -0.000127104 -6.68525e-20)
(0.0205785 -0.000119272 6.64285e-20)
(0.0206312 -0.000111843 -9.90009e-20)
(0.0206811 -0.000104799 0)
(0.0207282 -9.81254e-05 0)
(0.0207726 -9.18044e-05 6.46991e-20)
(0.0208145 -8.58217e-05 9.63879e-20)
(0.0208539 -8.01632e-05 0)
(0.020891 -7.48156e-05 -3.16845e-20)
(0.0209259 -6.97585e-05 0)
(0.0209586 -6.49566e-05 9.37039e-20)
(0.0209893 -6.04058e-05 -6.31592e-25)
(0.0210181 -5.60853e-05 5.85788e-25)
(0.0210449 -5.19735e-05 -6.10998e-20)
(0.02107 -4.81742e-05 0)
(0.0210936 -4.46664e-05 6.01745e-20)
(0.0211157 -4.14931e-05 -4.38722e-25)
(0.0211362 -3.84043e-05 0)
(0.0211552 -3.54273e-05 0)
(0.0211727 -3.26175e-05 0)
(0.0211889 -2.99839e-05 -5.78231e-20)
(0.0212038 -2.75169e-05 0)
(0.0212175 -2.52056e-05 0)
(0.0212301 -2.30405e-05 0)
(0.0212416 -2.1013e-05 0)
(0.021252 -1.9115e-05 0)
(0.0212615 -1.7339e-05 -5.49448e-20)
(0.02127 -1.56777e-05 0)
(0.0212777 -1.41242e-05 -5.39739e-20)
(0.0212845 -1.26719e-05 -5.34867e-20)
(0.0212905 -1.13146e-05 5.29984e-20)
(0.0212958 -1.00465e-05 0)
(0.0213004 -8.86234e-06 5.20188e-20)
(0.0213043 -7.75729e-06 0)
(0.0213076 -6.72689e-06 5.10356e-20)
(0.0213102 -5.76702e-06 -5.05428e-20)
(0.0213124 -4.87381e-06 -1.50148e-19)
(0.0213139 -4.04354e-06 0)
(0.021315 -3.27266e-06 -1.47182e-19)
(0.0213155 -2.55774e-06 -4.85656e-20)
(0.0213157 -1.89551e-06 0)
(0.0213153 -1.28284e-06 -9.5148e-20)
(0.0213146 -7.1681e-07 -9.41555e-20)
(0.0213135 -1.94606e-07 1.39744e-19)
(0.021312 2.86425e-07 0)