/*--------------------------------*- C++ -*----------------------------------*\
  =========                 |
  \\      /  F ield         | OpenFOAM: The Open Source CFD Toolbox
   \\    /   O peration     | Website:  https://openfoam.org
    \\  /    A nd           | Version:  8
     \\/     M anipulation  |
\*---------------------------------------------------------------------------*/
FoamFile
{
    version     2.0;
    format      ascii;
    class       volScalarField;
    location    "0.56";
    object      p;
}
// * * * * * * * * * * * * * * * * * * * * * * * * * * * * * * * * * * * * * //

dimensions      [0 2 -2 0 0 0 0];

internalField   nonuniform List<scalar> 
12225
(
-0.00918848
-0.00915647
-0.00912055
-0.00908866
-0.00906826
-0.00906341
-0.00907765
-0.00911434
-0.00917715
-0.00927069
-0.00940158
-0.00958054
-0.00982629
-0.0101739
-0.0106909
-0.0115094
-0.0129975
-0.0167107
-0.0091877
-0.00915904
-0.00912657
-0.00909807
-0.00908094
-0.00907928
-0.0090967
-0.0091366
-0.00920274
-0.00929983
-0.0094346
-0.00961776
-0.00986746
-0.0102161
-0.0107213
-0.0114869
-0.0127147
-0.0152127
-0.00918815
-0.00916253
-0.00913391
-0.00910929
-0.00909594
-0.00909794
-0.00911897
-0.00916244
-0.00923214
-0.00933278
-0.009471
-0.00965704
-0.00990747
-0.0102498
-0.0107277
-0.0114066
-0.0123316
-0.0138888
-0.00919031
-0.00916668
-0.00914134
-0.00912025
-0.00911038
-0.00911574
-0.00913997
-0.00918647
-0.00925894
-0.00936191
-0.00950157
-0.00968703
-0.00993212
-0.0102576
-0.0106916
-0.011265
-0.0119456
-0.0129092
-0.00919405
-0.00917156
-0.00914887
-0.00913093
-0.00912418
-0.00913254
-0.00915953
-0.00920846
-0.00928283
-0.00938678
-0.0095257
-0.00970703
-0.00994104
-0.0102411
-0.0106208
-0.0110854
-0.0115765
-0.0121603
-0.00919924
-0.00917714
-0.00915657
-0.00914142
-0.00913749
-0.00914849
-0.00917782
-0.00922857
-0.00930395
-0.00940753
-0.00954362
-0.00971759
-0.00993581
-0.0102046
-0.0105258
-0.010888
-0.0112293
-0.0115621
-0.00920565
-0.00918334
-0.00916436
-0.00915164
-0.00915018
-0.00916345
-0.00919463
-0.00924656
-0.00932201
-0.00942386
-0.00955513
-0.00971894
-0.00991783
-0.010152
-0.010415
-0.0106862
-0.0109109
-0.0110808
-0.00921301
-0.00919002
-0.0091721
-0.00916141
-0.00916204
-0.00917716
-0.00920967
-0.00926208
-0.00933667
-0.00943548
-0.00956015
-0.00971156
-0.00988884
-0.0100875
-0.0102957
-0.01049
-0.0106267
-0.0106948
-0.00922096
-0.00919694
-0.0091796
-0.00917055
-0.00917286
-0.00918939
-0.00922268
-0.00927488
-0.00934771
-0.00944232
-0.00955896
-0.00969647
-0.00985119
-0.0100154
-0.0101748
-0.0103066
-0.0103791
-0.0103857
-0.00922898
-0.00920377
-0.00918664
-0.00917884
-0.00918244
-0.00919993
-0.00923348
-0.00928482
-0.00935509
-0.00944456
-0.00955222
-0.00967517
-0.00980769
-0.00994018
-0.0100579
-0.0101411
-0.0101685
-0.0101394
-0.00923653
-0.00921008
-0.00919292
-0.00918604
-0.00919055
-0.00920856
-0.00924186
-0.00929177
-0.00935886
-0.00944258
-0.00954085
-0.00964941
-0.00976123
-0.00986592
-0.00994965
-0.00999657
-0.0099935
-0.00994495
-0.00924242
-0.00921493
-0.00919763
-0.00919135
-0.00919638
-0.0092145
-0.00924718
-0.00929536
-0.00935915
-0.00943739
-0.0095272
-0.00962349
-0.00971855
-0.00980202
-0.0098614
-0.00988427
-0.00986283
-0.00980522
-0.00924662
-0.0092189
-0.00920141
-0.00919561
-0.00920101
-0.00921902
-0.00925082
-0.00929702
-0.00935732
-0.00943006
-0.00951178
-0.0095969
-0.00967752
-0.00974383
-0.00978503
-0.00979173
-0.00976005
-0.00969849
-0.00924867
-0.00922161
-0.00920414
-0.0091988
-0.00920446
-0.0092221
-0.0092526
-0.00929631
-0.00935257
-0.00941933
-0.00949276
-0.00956706
-0.00963458
-0.00968641
-0.00971367
-0.0097097
-0.00967328
-0.00961206
-0.00924652
-0.00922134
-0.00920462
-0.00919988
-0.00920573
-0.0092227
-0.00925151
-0.00929228
-0.00934415
-0.0094049
-0.00947061
-0.00953563
-0.00959288
-0.00963459
-0.00965361
-0.00964533
-0.00960967
-0.00955272
-0.00923707
-0.00921565
-0.00920113
-0.0091975
-0.00920355
-0.00921963
-0.00924636
-0.00928385
-0.00933126
-0.00938647
-0.00944585
-0.00950421
-0.00955527
-0.00959236
-0.00960965
-0.00960358
-0.00957394
-0.00952455
-0.00921637
-0.00920149
-0.0091915
-0.00918996
-0.00919645
-0.00921148
-0.00923579
-0.00926968
-0.00931265
-0.009363
-0.00941768
-0.00947225
-0.00952131
-0.00955907
-0.0095804
-0.00958181
-0.00956206
-0.00952241
-0.00918083
-0.00917592
-0.00917339
-0.00917531
-0.00918256
-0.00919627
-0.00921756
-0.00924717
-0.00928514
-0.00933047
-0.0093809
-0.0094329
-0.00948184
-0.00952261
-0.00955022
-0.00956052
-0.0095506
-0.00951964
-0.00913142
-0.0091393
-0.00914621
-0.00915199
-0.00915915
-0.00916978
-0.00918549
-0.00920759
-0.0092368
-0.00927302
-0.00931504
-0.00936038
-0.00940537
-0.00944548
-0.00947578
-0.00949128
-0.00948708
-0.00945976
-0.00909615
-0.00911473
-0.00912919
-0.00913747
-0.0091432
-0.00914875
-0.00915571
-0.00916538
-0.00917872
-0.00919612
-0.00921717
-0.00924047
-0.00926362
-0.00928333
-0.00929577
-0.00929667
-0.00928104
-0.0092444
-0.00908324
-0.00910743
-0.00912592
-0.00913582
-0.00914104
-0.00914372
-0.00914507
-0.00914605
-0.00914739
-0.00914942
-0.00915192
-0.00915398
-0.00915391
-0.00914931
-0.00913727
-0.00911446
-0.00907654
-0.00901911
-0.0090861
-0.00911236
-0.00913275
-0.00914414
-0.00914999
-0.00915174
-0.00915005
-0.00914537
-0.00913796
-0.00912779
-0.00911453
-0.00909736
-0.00907499
-0.00904564
-0.00900721
-0.00895731
-0.00889269
-0.0088096
-0.00909853
-0.00912448
-0.00914557
-0.00915877
-0.00916643
-0.00916916
-0.00916701
-0.00915994
-0.00914768
-0.0091298
-0.00910563
-0.00907424
-0.00903444
-0.00898478
-0.00892365
-0.00884938
-0.00875985
-0.00865235
-0.00911486
-0.00913932
-0.00916084
-0.00917641
-0.00918691
-0.00919211
-0.0091916
-0.00918486
-0.00917121
-0.0091498
-0.00911959
-0.00907943
-0.00902802
-0.008964
-0.00888601
-0.00879277
-0.00868305
-0.0085552
-0.00913101
-0.00915383
-0.00917618
-0.00919473
-0.00920881
-0.0092175
-0.00922002
-0.00921554
-0.00920304
-0.00918133
-0.00914904
-0.00910472
-0.00904689
-0.00897411
-0.00888507
-0.00877868
-0.00865419
-0.00851091
-0.00914456
-0.00916631
-0.00919028
-0.00921235
-0.00923044
-0.00924317
-0.00924952
-0.00924846
-0.00923876
-0.00921896
-0.00918739
-0.00914233
-0.00908205
-0.00900495
-0.00890964
-0.00879504
-0.00866063
-0.0085064
-0.00915435
-0.00917611
-0.00920262
-0.00922863
-0.00925094
-0.0092679
-0.00927843
-0.0092814
-0.00927547
-0.00925895
-0.00922996
-0.00918647
-0.00912651
-0.00904828
-0.00895021
-0.00883116
-0.00869058
-0.00852887
-0.00916006
-0.00918321
-0.00921328
-0.00924357
-0.00927017
-0.0092914
-0.00930622
-0.00931354
-0.00931193
-0.00929958
-0.00927437
-0.00923404
-0.00917635
-0.00909922
-0.00900091
-0.00888011
-0.00873614
-0.00856944
-0.00916191
-0.00918802
-0.00922246
-0.00925722
-0.00928809
-0.00931349
-0.00933257
-0.00934433
-0.00934734
-0.00933969
-0.00931906
-0.00928295
-0.00922884
-0.0091544
-0.00905764
-0.00893705
-0.00879173
-0.00862202
-0.00916117
-0.00919084
-0.00922921
-0.00926767
-0.00930195
-0.00933066
-0.00935313
-0.0093685
-0.00937535
-0.0093717
-0.00935509
-0.00932283
-0.00927218
-0.00920058
-0.00910583
-0.00898623
-0.00884072
-0.00866949
0.00128552
0.00131568
0.00132518
0.00129491
0.0012229
0.00111059
0.00095998
0.000773585
0.000554246
0.000304741
2.76035e-05
-0.000275198
-0.000602086
-0.000951911
-0.00132387
-0.00171737
-0.00213183
-0.00256652
-0.00302038
-0.0034918
-0.00397845
-0.00447719
-0.00498385
-0.0054932
-0.0059988
-0.00649306
-0.00696714
-0.00741105
-0.00781372
-0.00816315
-0.00844663
-0.00865095
-0.00876275
-0.00876887
-0.00865671
-0.00841473
-0.00803279
-0.00750267
-0.00681842
-0.00597674
-0.00497729
-0.00382295
-0.00251995
-0.00107785
0.000490722
0.00216963
0.00393928
0.00577784
0.007661
0.00956254
0.0114549
0.0133096
0.0150979
0.0167912
0.0183614
0.0197813
0.0210254
0.0220697
0.0228923
0.0234738
0.0237974
0.0238505
0.0236233
0.0231098
0.0223096
0.0212276
0.0198742
0.0182664
0.0164274
0.014387
0.012181
0.00985096
0.00744291
0.00500611
0.00259128
0.000248139
-0.00197329
-0.00403168
-0.00589001
-0.00751921
-0.00889954
-0.0100213
-0.0108848
-0.0114999
-0.0118847
-0.0120638
-0.0120665
-0.0119241
-0.0116686
-0.0113302
-0.0109361
-0.0105098
-0.0100704
-0.00963302
-0.00920891
-0.00880646
-0.00843174
-0.00808917
-0.00778188
-0.00751171
-0.00727927
-0.00708372
-0.00692283
-0.00679312
-0.0066902
-0.00660912
-0.0065448
-0.00649236
-0.00644732
-0.00640578
-0.00636444
-0.00632065
-0.00627238
-0.00621816
-0.0061571
-0.00608878
-0.00601321
-0.00593081
-0.00584225
-0.00574849
-0.00565059
-0.00554977
-0.00544707
-0.00534382
-0.00524104
-0.0051397
-0.00504063
-0.00494452
-0.00485191
-0.00476319
-0.0046786
-0.00459828
-0.00452225
-0.00445044
-0.00438269
-0.0043188
-0.00425853
-0.00420158
-0.00414768
-0.00409649
-0.00404773
-0.00400109
-0.00395627
-0.003913
-0.00387101
-0.00383006
-0.00378992
-0.0037504
-0.00371129
-0.00367243
-0.00363366
-0.00359486
-0.00355589
-0.00351666
-0.00347707
-0.00343705
-0.00339653
-0.00335544
-0.00331374
-0.00327139
-0.00322835
-0.00318459
-0.00314007
-0.00309476
-0.00304859
-0.00300151
-0.00295339
-0.00290407
-0.00285333
-0.00280083
-0.00274612
-0.00268875
-0.00262817
-0.00256381
-0.00249532
-0.00242247
-0.0023453
-0.00226583
-0.00218832
-0.00208511
0.00129601
0.00132743
0.00133671
0.00130674
0.00123865
0.00113529
0.000998807
0.000831333
0.000635085
0.000412167
0.000164324
-0.000106954
-0.000400631
-0.000716053
-0.00105286
-0.00141083
-0.0017898
-0.00218943
-0.00260909
-0.00304768
-0.00350346
-0.00397389
-0.00445547
-0.00494369
-0.00543287
-0.00591612
-0.00638529
-0.00683102
-0.00724273
-0.0076088
-0.00791668
-0.00815317
-0.00830467
-0.00835759
-0.00829871
-0.00811563
-0.00779725
-0.00733423
-0.00671945
-0.00594842
-0.00501969
-0.00393512
-0.00269992
-0.00132241
0.000185355
0.00180755
0.0035254
0.00531683
0.00715745
0.00902095
0.0108796
0.0127046
0.0144671
0.016138
0.0176891
0.0190932
0.0203242
0.0213584
0.0221737
0.0227506
0.0230722
0.023125
0.0228996
0.0223907
0.0215985
0.0205281
0.0191905
0.0176031
0.0157897
0.0137806
0.0116123
0.00932694
0.00697093
0.00459382
0.00224655
-2.02675e-05
-0.00216134
-0.00413334
-0.00590255
-0.00744265
-0.00873674
-0.00977814
-0.0105702
-0.0111255
-0.0114642
-0.0116122
-0.0115991
-0.0114556
-0.0112122
-0.0108969
-0.0105344
-0.0101454
-0.00974664
-0.0093507
-0.00896703
-0.00860246
-0.00826197
-0.00794927
-0.0076671
-0.00741729
-0.00720065
-0.00701679
-0.00686409
-0.0067398
-0.00664025
-0.0065612
-0.00649819
-0.00644684
-0.00640304
-0.00636313
-0.00632392
-0.00628281
-0.00623772
-0.00618711
-0.00612996
-0.00606573
-0.00599433
-0.00591602
-0.00583141
-0.00574134
-0.00564682
-0.00554896
-0.00544901
-0.00534802
-0.00524711
-0.00514727
-0.00504934
-0.00495406
-0.00486198
-0.00477354
-0.00468903
-0.00460861
-0.00453232
-0.00446014
-0.00439194
-0.00432753
-0.0042667
-0.00420917
-0.00415467
-0.0041029
-0.00405356
-0.00400635
-0.00396099
-0.00391721
-0.00387474
-0.00383335
-0.0037928
-0.00375289
-0.00371344
-0.00367426
-0.00363521
-0.00359615
-0.00355696
-0.00351753
-0.00347776
-0.00343759
-0.00339693
-0.00335572
-0.00331392
-0.00327148
-0.00322837
-0.00318453
-0.00313995
-0.00309456
-0.00304833
-0.00300117
-0.00295296
-0.00290354
-0.00285268
-0.00280009
-0.00274539
-0.00268812
-0.00262781
-0.00256404
-0.00249643
-0.00242489
-0.00234962
-0.00227288
-0.00219855
-0.00210001
0.0014865
0.0015051
0.00150071
0.00146
0.00138566
0.00128122
0.00114899
0.000990866
0.000808637
0.000603875
0.000377758
0.000131012
-0.000136088
-0.000423678
-0.000732215
-0.00106235
-0.0014148
-0.00179014
-0.00218867
-0.00261023
-0.003054
-0.00351834
-0.0040006
-0.00449702
-0.00500252
-0.00551065
-0.00601347
-0.00650156
-0.00696403
-0.00738862
-0.00776191
-0.00806953
-0.00829656
-0.00842787
-0.00844863
-0.00834485
-0.00810384
-0.00771483
-0.00716944
-0.00646221
-0.00559104
-0.00455719
-0.00336506
-0.00202289
-0.000543598
0.00105613
0.00275658
0.00453504
0.00636634
0.00822333
0.0100775
0.0118994
0.0136596
0.0153286
0.016878
0.0182803
0.0195097
0.0205423
0.0213563
0.0219325
0.022254
0.0223077
0.0220843
0.0215779
0.0207885
0.0197216
0.0183879
0.0168051
0.0149973
0.0129954
0.0108368
0.00856478
0.00622708
0.0038747
0.00155996
-0.000665594
-0.00275356
-0.00466095
-0.00635353
-0.00780665
-0.00900547
-0.00994614
-0.0106357
-0.0110911
-0.011337
-0.0114036
-0.0113237
-0.0111306
-0.0108554
-0.0105256
-0.0101641
-0.00978909
-0.00941385
-0.00904785
-0.00869742
-0.00836674
-0.00805872
-0.0077756
-0.00751929
-0.00729126
-0.00709239
-0.00692262
-0.00678087
-0.00666495
-0.00657183
-0.00649784
-0.00643903
-0.00639143
-0.00635127
-0.00631508
-0.00627981
-0.00624289
-0.0062022
-0.00615615
-0.00610363
-0.00604399
-0.00597703
-0.00590296
-0.00582229
-0.00573581
-0.00564451
-0.00554948
-0.00545192
-0.00535295
-0.00525369
-0.00515514
-0.00505819
-0.00496359
-0.00487195
-0.00478373
-0.00469925
-0.0046187
-0.00454216
-0.00446963
-0.00440099
-0.00433611
-0.00427475
-0.00421668
-0.00416162
-0.00410929
-0.0040594
-0.00401166
-0.00396579
-0.00392152
-0.00387859
-0.00383676
-0.00379581
-0.00375553
-0.00371573
-0.00367624
-0.00363691
-0.00359759
-0.00355816
-0.00351852
-0.00347858
-0.00343823
-0.00339743
-0.0033561
-0.00331419
-0.00327165
-0.00322845
-0.00318454
-0.00313988
-0.00309443
-0.00304813
-0.0030009
-0.00295262
-0.00290313
-0.00285223
-0.00279963
-0.00274499
-0.00268792
-0.002628
-0.00256487
-0.00249828
-0.00242823
-0.00235498
-0.00228094
-0.00221024
-0.00211492
0.00187083
0.00185918
0.00182435
0.00176072
0.00167035
0.00155568
0.0014185
0.00126028
0.00108225
0.000885254
0.00066958
0.000434983
0.00018067
-9.46558e-05
-0.000392694
-0.000715415
-0.00106488
-0.00144305
-0.00185157
-0.0022915
-0.00276316
-0.00326578
-0.00379736
-0.00435442
-0.00493178
-0.00552247
-0.0061176
-0.00670636
-0.00727609
-0.00781246
-0.00829969
-0.008721
-0.00905898
-0.00929613
-0.00941546
-0.00940108
-0.00923879
-0.0089167
-0.00842579
-0.00776044
-0.0069186
-0.00590155
-0.00471434
-0.0033674
-0.00187554
-0.000256689
0.00146788
0.00327389
0.00513464
0.00702156
0.0089049
0.0107543
0.0125394
0.0142305
0.0157987
0.0172167
0.0184589
0.0195018
0.020324
0.0209066
0.021233
0.0212905
0.0210699
0.0205647
0.0197742
0.0187031
0.0173621
0.0157683
0.0139459
0.0119263
0.00974758
0.00745425
0.00509585
0.00272559
0.000398352
-0.00183155
-0.00391277
-0.00579832
-0.00745049
-0.00884305
-0.00996078
-0.0108005
-0.0113715
-0.0116948
-0.0118008
-0.0117266
-0.0115122
-0.0111974
-0.0108187
-0.0104068
-0.00998584
-0.00957284
-0.0091786
-0.00880887
-0.0084659
-0.00814993
-0.00786049
-0.00759724
-0.0073603
-0.00715017
-0.00696729
-0.00681153
-0.00668192
-0.00657658
-0.00649274
-0.00642699
-0.00637562
-0.00633487
-0.00630112
-0.00627102
-0.00624158
-0.00621023
-0.00617484
-0.00613378
-0.00608589
-0.00603049
-0.00596735
-0.00589665
-0.00581891
-0.00573494
-0.00564573
-0.00555243
-0.00545625
-0.00535836
-0.00525992
-0.00516196
-0.00506542
-0.00497106
-0.00487953
-0.00479131
-0.00470673
-0.00462601
-0.00454925
-0.00447644
-0.0044075
-0.00434227
-0.00428056
-0.00422213
-0.0041667
-0.004114
-0.00406375
-0.00401565
-0.00396943
-0.00392483
-0.00388158
-0.00383945
-0.00379821
-0.00375767
-0.00371762
-0.0036779
-0.00363835
-0.00359884
-0.00355924
-0.00351944
-0.00347934
-0.00343887
-0.00339795
-0.00335652
-0.00331451
-0.0032719
-0.00322862
-0.00318465
-0.00313994
-0.00309443
-0.00304808
-0.00300081
-0.00295249
-0.00290299
-0.00285211
-0.00279958
-0.0027451
-0.00268832
-0.00262888
-0.00256646
-0.00250089
-0.00243222
-0.00236071
-0.00228871
-0.00221999
-0.00212885
0.0024076
0.00235215
0.0022736
0.00217765
0.0020643
0.00193336
0.00178522
0.00162022
0.00143836
0.00123918
0.00102166
0.00078417
0.000524474
0.000239732
-7.3369e-05
-0.000418449
-0.000799211
-0.00121917
-0.00168134
-0.00218792
-0.00273997
-0.00333705
-0.00397695
-0.00465539
-0.00536586
-0.00609948
-0.00684493
-0.00758863
-0.00831483
-0.00900601
-0.00964324
-0.0102067
-0.0106763
-0.0110322
-0.0112556
-0.0113291
-0.0112378
-0.0109694
-0.0105152
-0.00986996
-0.00903234
-0.00800472
-0.00679495
-0.00541584
-0.00388345
-0.00221763
-0.000441691
0.00141808
0.0033331
0.00527312
0.00720691
0.00910298
0.0109302
0.0126583
0.0142584
0.0157034
0.0169681
0.0180296
0.0188671
0.0194623
0.0197992
0.0198646
0.0196494
0.0191472
0.018356
0.0172801
0.0159294
0.0143203
0.0124769
0.0104304
0.00821964
0.00589016
0.00349316
0.00108403
-0.00127955
-0.00353999
-0.00564222
-0.00753619
-0.00917858
-0.0105377
-0.0115952
-0.0123461
-0.0127991
-0.012977
-0.0129147
-0.012656
-0.01225
-0.0117463
-0.0111912
-0.0106234
-0.0100727
-0.00955837
-0.00909086
-0.00867301
-0.00830267
-0.00797514
-0.00768517
-0.00742838
-0.00720183
-0.00700394
-0.0068339
-0.00669094
-0.00657371
-0.00648017
-0.00640753
-0.00635237
-0.00631098
-0.00627958
-0.00625455
-0.00623255
-0.00621055
-0.00618596
-0.00615663
-0.00612089
-0.00607758
-0.00602603
-0.00596604
-0.00589784
-0.00582202
-0.00573945
-0.00565122
-0.00555855
-0.00546271
-0.00536496
-0.0052665
-0.00516842
-0.00507168
-0.00497709
-0.0048853
-0.00479681
-0.00471197
-0.004631
-0.00455399
-0.00448094
-0.00441177
-0.00434632
-0.00428439
-0.00422573
-0.00417009
-0.00411718
-0.00406672
-0.00401842
-0.003972
-0.0039272
-0.00388377
-0.00384145
-0.00380004
-0.00375932
-0.00371911
-0.00367924
-0.00363955
-0.0035999
-0.00356017
-0.00352025
-0.00348005
-0.00343949
-0.00339848
-0.00335696
-0.00331489
-0.00327221
-0.00322888
-0.00318485
-0.00314009
-0.00309455
-0.00304817
-0.00300087
-0.00295256
-0.00290309
-0.00285228
-0.00279991
-0.00274568
-0.0026893
-0.00263043
-0.00256881
-0.00250429
-0.00243692
-0.00236698
-0.00229654
-0.00222862
-0.00214304
0.00304176
0.00293446
0.00280492
0.00267199
0.00253225
0.00238164
0.00221803
0.00203971
0.00184473
0.00163074
0.00139489
0.00113375
0.000843248
0.000518721
0.000155042
-0.00025314
-0.000711081
-0.00122357
-0.00179449
-0.00242641
-0.00312014
-0.00387434
-0.00468519
-0.00554619
-0.00644797
-0.00737836
-0.00832247
-0.00926294
-0.0101804
-0.0110538
-0.011861
-0.0125796
-0.0131873
-0.0136625
-0.0139854
-0.014138
-0.0141053
-0.0138754
-0.0134401
-0.0127952
-0.0119405
-0.0108813
-0.00962781
-0.00819393
-0.00659789
-0.00486186
-0.00301152
-0.00107544
0.000915609
0.00292937
0.00493292
0.00689339
0.00877866
0.010558
0.0122024
0.013685
0.0149814
0.0160694
0.0169291
0.017543
0.0178958
0.0179743
0.0177693
0.0172743
0.0164864
0.0154089
0.0140507
0.0124277
0.0105632
0.00848831
0.00624228
0.00387149
0.00142862
-0.0010289
-0.0034408
-0.00574632
-0.00788669
-0.00980787
-0.0114623
-0.0128126
-0.013834
-0.0145172
-0.0148679
-0.0149073
-0.0146716
-0.0142091
-0.0135769
-0.0128352
-0.0120427
-0.0112504
-0.0104984
-0.00981374
-0.00921005
-0.00868996
-0.00824805
-0.00787449
-0.00755827
-0.0072895
-0.00706065
-0.00686668
-0.00670437
-0.00657141
-0.00646546
-0.0063838
-0.00632321
-0.00628001
-0.00625021
-0.00622987
-0.00621518
-0.00620267
-0.00618921
-0.00617213
-0.00614922
-0.00611881
-0.00607975
-0.00603144
-0.00597377
-0.00590707
-0.00583205
-0.00574973
-0.00566131
-0.00556815
-0.00547161
-0.00537305
-0.00527374
-0.00517483
-0.00507731
-0.00498202
-0.00488961
-0.0048006
-0.00471532
-0.00463399
-0.0045567
-0.00448343
-0.00441408
-0.0043485
-0.00428646
-0.00422772
-0.004172
-0.00411902
-0.00406848
-0.00402011
-0.00397363
-0.00392875
-0.00388524
-0.00384284
-0.00380135
-0.00376055
-0.00372025
-0.0036803
-0.00364052
-0.00360079
-0.00356099
-0.00352099
-0.00348072
-0.00344008
-0.00339901
-0.00335744
-0.00331531
-0.00327258
-0.0032292
-0.00318514
-0.00314034
-0.00309478
-0.00304838
-0.00300109
-0.0029528
-0.0029034
-0.00285272
-0.00280057
-0.00274668
-0.00269078
-0.00263259
-0.00257186
-0.00250844
-0.00244238
-0.00237393
-0.00230474
-0.00223701
-0.00215777
0.00370071
0.00353866
0.00335596
0.00318529
0.00301858
0.00284638
0.00266301
0.00246388
0.00224439
0.00199975
0.00172482
0.00141402
0.00106123
0.000659884
0.000203142
-0.000315751
-0.000903041
-0.00156396
-0.00230221
-0.00311943
-0.00401475
-0.00498443
-0.00602161
-0.0071162
-0.00825494
-0.00942158
-0.0105972
-0.0117607
-0.0128892
-0.0139586
-0.0149444
-0.0158222
-0.0165682
-0.01716
-0.0175771
-0.0178017
-0.0178187
-0.0176169
-0.0171887
-0.0165311
-0.0156461
-0.0145406
-0.0132263
-0.011719
-0.0100395
-0.00821225
-0.00626572
-0.00423107
-0.00214166
-3.21455e-05
0.00206243
0.00410745
0.00606953
0.00791715
0.00962116
0.011155
0.0124949
0.0136196
0.0145104
0.015151
0.0155269
0.0156255
0.0154371
0.0149551
0.0141762
0.0131022
0.0117412
0.010108
0.00822543
0.00612438
0.00384428
0.00143237
-0.0010573
-0.00356542
-0.00602935
-0.0083854
-0.0105714
-0.0125294
-0.014208
-0.015565
-0.0165695
-0.0172059
-0.0174752
-0.0173947
-0.0169983
-0.0163353
-0.0154675
-0.0144638
-0.0133949
-0.0123263
-0.0113125
-0.0103926
-0.00958888
-0.00890798
-0.008344
-0.00788325
-0.00750887
-0.00720452
-0.00695663
-0.00675513
-0.00659306
-0.00646542
-0.00636812
-0.00629709
-0.0062482
-0.00621721
-0.00619964
-0.00619111
-0.00618751
-0.00618511
-0.00618058
-0.00617112
-0.00615444
-0.00612888
-0.00609334
-0.00604732
-0.00599084
-0.00592441
-0.00584894
-0.0057656
-0.00567578
-0.00558098
-0.00548272
-0.00538243
-0.00528148
-0.00518107
-0.00508222
-0.00498579
-0.00489245
-0.00480268
-0.00471683
-0.00463507
-0.00455748
-0.00448402
-0.00441456
-0.00434893
-0.00428689
-0.00422818
-0.00417251
-0.00411959
-0.00406912
-0.00402081
-0.00397437
-0.00392954
-0.00388605
-0.00384368
-0.00380219
-0.00376139
-0.00372108
-0.0036811
-0.0036413
-0.00360154
-0.0035617
-0.00352167
-0.00348135
-0.00344067
-0.00339956
-0.00335794
-0.00331578
-0.00327301
-0.0032296
-0.0031855
-0.00314069
-0.00309511
-0.00304871
-0.00300144
-0.00295321
-0.00290391
-0.00285341
-0.00280153
-0.00274806
-0.00269273
-0.0026353
-0.00257552
-0.00251325
-0.00244849
-0.00238146
-0.00231331
-0.0022454
-0.00217266
0.00429646
0.00408152
0.00384829
0.00364213
0.00344916
0.00325359
0.00304531
0.0028162
0.00255847
0.00226447
0.00192651
0.00153671
0.00108696
0.000569005
-2.52048e-05
-0.000703097
-0.00147092
-0.00233314
-0.0032919
-0.0043465
-0.00549299
-0.006724
-0.00802864
-0.00939261
-0.0107984
-0.0122259
-0.0136524
-0.0150536
-0.0164039
-0.0176771
-0.0188468
-0.0198874
-0.020774
-0.0214837
-0.0219955
-0.0222914
-0.0223566
-0.0221798
-0.0217541
-0.0210777
-0.020154
-0.018991
-0.0176019
-0.0160049
-0.0142231
-0.0122839
-0.0102186
-0.00806143
-0.00584888
-0.00361851
-0.00140806
0.000745584
0.0028073
0.00474444
0.00652736
0.00812968
0.0095283
0.0107032
0.011637
0.0123146
0.0127228
0.0128499
0.0126861
0.0122246
0.0114617
0.0103978
0.00904003
0.00740237
0.00550679
0.00338409
0.00107398
-0.00137546
-0.00390883
-0.00646502
-0.0089791
-0.0113847
-0.0136167
-0.0156133
-0.0173197
-0.0186891
-0.0196871
-0.0202909
-0.0204961
-0.0203151
-0.0197776
-0.0189306
-0.0178366
-0.01657
-0.0152106
-0.0138375
-0.0125208
-0.0113152
-0.0102565
-0.0093598
-0.00862305
-0.00803146
-0.00756351
-0.0071963
-0.00690929
-0.00668607
-0.00651447
-0.00638563
-0.00629267
-0.00622958
-0.00619082
-0.00617109
-0.00616522
-0.00616821
-0.00617548
-0.00618289
-0.00618686
-0.0061844
-0.00617315
-0.00615143
-0.00611824
-0.00607322
-0.00601659
-0.00594907
-0.00587178
-0.00578614
-0.00569373
-0.00559623
-0.00549528
-0.00539245
-0.00528917
-0.0051867
-0.00508608
-0.00498819
-0.00489368
-0.00480301
-0.00471649
-0.00463429
-0.00455642
-0.00448282
-0.00441335
-0.00434778
-0.00428586
-0.0042273
-0.00417181
-0.00411908
-0.00406879
-0.00402066
-0.00397438
-0.00392969
-0.00388633
-0.00384406
-0.00380266
-0.00376192
-0.00372167
-0.00368173
-0.00364195
-0.0036022
-0.00356235
-0.00352231
-0.00348198
-0.00344129
-0.00340015
-0.00335851
-0.00331631
-0.00327352
-0.00323008
-0.00318597
-0.00314114
-0.00309555
-0.00304917
-0.00300193
-0.00295378
-0.00290462
-0.00285434
-0.00280279
-0.00274977
-0.00269508
-0.00263846
-0.00257969
-0.00251857
-0.00245506
-0.00238934
-0.00232203
-0.00225372
-0.00218709
0.00473299
0.00447153
0.00419402
0.00395641
0.00373825
0.00351689
0.00327735
0.00300756
0.00269628
0.00233283
0.00190694
0.00140859
0.000827975
0.000155747
-0.000616593
-0.00149614
-0.00248795
-0.0035945
-0.00481509
-0.00614556
-0.00757801
-0.00910086
-0.0106989
-0.0123539
-0.0140444
-0.0157468
-0.0174358
-0.0190845
-0.0206654
-0.0221505
-0.0235122
-0.0247236
-0.0257589
-0.0265943
-0.027208
-0.0275815
-0.0276996
-0.0275506
-0.0271279
-0.0264307
-0.0254628
-0.0242335
-0.0227574
-0.0210552
-0.0191524
-0.0170796
-0.0148713
-0.0125654
-0.0102019
-0.0078221
-0.00546696
-0.00317632
-0.000987668
0.00106468
0.00295019
0.0046424
0.00611884
0.00736068
0.00835212
0.00907971
0.00953173
0.00969771
0.00956821
0.00913618
0.00839752
0.0073517
0.00600469
0.00436956
0.00246768
0.0003297
-0.0020043
-0.00448536
-0.0070567
-0.00965538
-0.0122143
-0.0146647
-0.0169383
-0.0189704
-0.0207025
-0.0220844
-0.0230779
-0.0236557
-0.0238074
-0.0235406
-0.0228801
-0.0218691
-0.0205682
-0.0190529
-0.017409
-0.0157257
-0.0140877
-0.0125662
-0.011213
-0.0100563
-0.0091023
-0.00833871
-0.00774184
-0.00728323
-0.00693519
-0.00667408
-0.0064814
-0.00634319
-0.00624882
-0.00618963
-0.00615808
-0.00614746
-0.00615161
-0.00616473
-0.0061816
-0.00619761
-0.00620883
-0.00621205
-0.00620481
-0.00618546
-0.00615311
-0.00610757
-0.00604929
-0.00597926
-0.00589885
-0.00580972
-0.00571366
-0.00561253
-0.00550813
-0.00540213
-0.00529603
-0.00519112
-0.00508847
-0.00498893
-0.00489314
-0.00480152
-0.00471436
-0.00463175
-0.00455369
-0.00448006
-0.00441067
-0.00434529
-0.00428361
-0.00422534
-0.00417016
-0.00411773
-0.00406774
-0.00401988
-0.00397386
-0.0039294
-0.00388625
-0.00384415
-0.0038029
-0.00376229
-0.00372213
-0.00368227
-0.00364255
-0.00360284
-0.00356302
-0.00352299
-0.00348267
-0.00344196
-0.00340081
-0.00335916
-0.00331694
-0.00327413
-0.00323067
-0.00318654
-0.0031417
-0.00309612
-0.00304976
-0.00300258
-0.00295452
-0.00290552
-0.00285548
-0.00280428
-0.00275177
-0.00269773
-0.00264194
-0.00258415
-0.00252415
-0.00246181
-0.00239725
-0.00233063
-0.00226179
-0.00220046
0.00491648
0.00461864
0.00430608
0.00404216
0.00379977
0.00354957
0.00327166
0.00294999
0.00256989
0.0021178
0.00158108
0.000947956
0.000207499
-0.000650013
-0.00163261
-0.00274603
-0.00399313
-0.00537337
-0.00688247
-0.00851225
-0.0102507
-0.012082
-0.0139873
-0.0159446
-0.0179297
-0.0199164
-0.021877
-0.0237828
-0.0256047
-0.0273132
-0.0288792
-0.0302744
-0.0314716
-0.0324455
-0.0331733
-0.0336351
-0.0338147
-0.0336999
-0.0332837
-0.0325659
-0.0315503
-0.0302473
-0.0286732
-0.0268509
-0.0248086
-0.0225802
-0.0202039
-0.0177215
-0.0151774
-0.0126168
-0.010085
-0.00762546
-0.0052787
-0.00308142
-0.00106559
0.000741834
0.00231881
0.00364769
0.00471441
0.00550745
0.00601693
0.00623389
0.00614993
0.00575778
0.00505305
0.00403465
0.0027072
0.00108305
-0.000816942
-0.00296222
-0.00531227
-0.00781716
-0.0104187
-0.0130523
-0.0156486
-0.0181364
-0.0204449
-0.0225066
-0.0242596
-0.0256504
-0.0266371
-0.0271903
-0.0272935
-0.0269501
-0.0261807
-0.0250241
-0.0235375
-0.0217953
-0.0198853
-0.0179036
-0.0159459
-0.0140987
-0.0124304
-0.010985
-0.0097803
-0.00881071
-0.00805342
-0.00747637
-0.00704546
-0.00672963
-0.00650324
-0.00634635
-0.00624366
-0.00618313
-0.00615473
-0.00615
-0.00616142
-0.00618226
-0.00620655
-0.00622911
-0.0062456
-0.00625256
-0.00624746
-0.00622866
-0.00619541
-0.00614773
-0.00608634
-0.00601247
-0.00592777
-0.00583415
-0.00573362
-0.00562822
-0.00551987
-0.00541032
-0.00530114
-0.00519364
-0.00508888
-0.00498769
-0.00489067
-0.0047982
-0.0047105
-0.00462762
-0.00454951
-0.00447599
-0.00440685
-0.00434179
-0.0042805
-0.00422264
-0.00416787
-0.00411586
-0.00406626
-0.00401877
-0.00397309
-0.00392893
-0.00388603
-0.00384417
-0.00380311
-0.00376265
-0.00372263
-0.00368287
-0.00364322
-0.00360357
-0.00356379
-0.00352379
-0.00348347
-0.00344277
-0.00340161
-0.00335994
-0.0033177
-0.00327487
-0.00323139
-0.00318725
-0.0031424
-0.00309682
-0.00305049
-0.00300336
-0.00295541
-0.00290658
-0.0028568
-0.00280596
-0.00275394
-0.00270055
-0.00264556
-0.00258871
-0.00252973
-0.00246842
-0.00240484
-0.00233879
-0.00226934
-0.00221225
0.0047681
0.00444685
0.00411063
0.00382623
0.00356054
0.00327833
0.00295525
0.00257153
0.00210941
0.00155277
0.000887079
9.93077e-05
-0.000821936
-0.001886
-0.00309963
-0.00446646
-0.00598644
-0.00765558
-0.0094658
-0.011405
-0.0134573
-0.0156035
-0.0178215
-0.0200867
-0.0223725
-0.0246507
-0.0268918
-0.0290655
-0.0311408
-0.0330866
-0.034872
-0.0364666
-0.0378413
-0.0389689
-0.0398248
-0.0403873
-0.0406387
-0.0405656
-0.0401608
-0.0394239
-0.0383585
-0.036976
-0.0352945
-0.0333387
-0.0311399
-0.0287351
-0.0261665
-0.0234804
-0.0207257
-0.0179525
-0.0152108
-0.0125484
-0.01001
-0.00763532
-0.00545843
-0.00350737
-0.00180414
-0.000365337
0.000796779
0.0016729
0.00225537
0.00253712
0.00251113
0.00217052
0.00151062
0.00053005
-0.000767801
-0.00237128
-0.00425989
-0.00640306
-0.00875977
-0.0112791
-0.0139016
-0.0165607
-0.0191854
-0.021702
-0.0240374
-0.0261213
-0.0278889
-0.0292838
-0.0302601
-0.0307874
-0.0308441
-0.0304298
-0.0295618
-0.028275
-0.0266229
-0.0246774
-0.0225263
-0.0202686
-0.0180079
-0.0158429
-0.0138573
-0.0121113
-0.0106367
-0.00943771
-0.00849563
-0.00777736
-0.00724392
-0.0068573
-0.00658458
-0.00639924
-0.00628064
-0.00621272
-0.00618257
-0.00617964
-0.00619474
-0.00622012
-0.00624891
-0.00627531
-0.00629455
-0.00630292
-0.00629779
-0.00627758
-0.00624166
-0.00619029
-0.00612443
-0.00604562
-0.00595575
-0.00585696
-0.00575148
-0.00564147
-0.00552897
-0.00541582
-0.00530358
-0.00519359
-0.00508687
-0.00498423
-0.00488618
-0.00479308
-0.00470507
-0.00462214
-0.00454417
-0.00447097
-0.00440224
-0.00433766
-0.0042769
-0.00421957
-0.00416533
-0.00411382
-0.0040647
-0.00401765
-0.00397235
-0.00392854
-0.00388594
-0.00384433
-0.00380349
-0.00376321
-0.00372332
-0.00368367
-0.00364411
-0.00360452
-0.00356477
-0.00352479
-0.00348448
-0.00344376
-0.00340259
-0.00336089
-0.00331863
-0.00327577
-0.00323226
-0.0031881
-0.00314324
-0.00309767
-0.00305136
-0.0030043
-0.00295645
-0.00290778
-0.00285825
-0.00280777
-0.00275621
-0.00270342
-0.00264914
-0.00259312
-0.00253502
-0.00247459
-0.00241177
-0.0023462
-0.00227614
-0.00222209
0.00423546
0.00390555
0.00355836
0.00325987
0.00297218
0.00265558
0.00228203
0.00182865
0.00127507
0.000603161
-0.000203007
-0.00115714
-0.00227051
-0.00355149