/*--------------------------------*- C++ -*----------------------------------*\
  =========                 |
  \\      /  F ield         | OpenFOAM: The Open Source CFD Toolbox
   \\    /   O peration     | Website:  https://openfoam.org
    \\  /    A nd           | Version:  8
     \\/     M anipulation  |
\*---------------------------------------------------------------------------*/
FoamFile
{
    version     2.0;
    format      ascii;
    class       surfaceScalarField;
    location    "0.56";
    object      phi;
}
// * * * * * * * * * * * * * * * * * * * * * * * * * * * * * * * * * * * * * //

dimensions      [0 3 -1 0 0 0 0];

internalField   nonuniform List<scalar> 
24170
(
-3.81454e-12
3.81454e-12
1.77568e-12
-5.59023e-12
1.70737e-11
-1.52981e-11
4.09054e-11
-2.38316e-11
7.21051e-11
-3.11997e-11
1.0989e-10
-3.77847e-11
1.53755e-10
-4.38654e-11
2.03442e-10
-4.96867e-11
2.58978e-10
-5.55359e-11
3.20833e-10
-6.1855e-11
3.90167e-10
-6.93342e-11
4.69131e-10
-7.89638e-11
5.6109e-10
-9.19591e-11
6.7016e-10
-1.0907e-10
7.96469e-10
-1.26309e-10
9.06023e-10
-1.09554e-10
8.65706e-10
4.03171e-11
2.13463e-09
-1.26892e-09
-6.42531e-12
1.02399e-11
1.37032e-11
-2.57187e-11
6.34217e-11
-6.50166e-11
1.39268e-10
-9.96778e-11
2.37906e-10
-1.29838e-10
3.56818e-10
-1.56696e-10
4.94245e-10
-1.81293e-10
6.49056e-10
-2.04497e-10
8.20813e-10
-2.27292e-10
1.01006e-09
-2.51098e-10
1.21866e-09
-2.77938e-10
1.4499e-09
-3.10203e-10
1.70724e-09
-3.49297e-10
1.98885e-09
-3.90682e-10
2.26733e-09
-4.04794e-10
2.42025e-09
-2.62473e-10
1.93557e-09
5.24994e-10
4.74255e-09
-6.72352e-10
-4.34904e-12
1.45889e-11
3.57453e-11
-6.58131e-11
1.2646e-10
-1.55732e-10
2.62349e-10
-2.35566e-10
4.3786e-10
-3.0535e-10
6.48478e-10
-3.67314e-10
8.90797e-10
-4.23612e-10
1.16226e-09
-4.75965e-10
1.46119e-09
-5.26214e-10
1.7869e-09
-5.76817e-10
2.13981e-09
-6.30841e-10
2.52025e-09
-6.90641e-10
2.92417e-09
-7.53222e-10
3.32995e-09
-7.96457e-10
3.66147e-09
-7.36314e-10
3.69128e-09
-2.92282e-10
2.77705e-09
1.43922e-09
7.4018e-09
1.17798e-10
2.57354e-12
1.20153e-11
6.91475e-11
-1.32387e-10
2.08244e-10
-2.94828e-10
4.12712e-10
-4.40034e-10
6.7471e-10
-5.67348e-10
9.87451e-10
-6.80054e-10
1.34539e-09
-7.81552e-10
1.74385e-09
-8.74419e-10
2.17878e-09
-9.61151e-10
2.64664e-09
-1.04468e-09
3.14353e-09
-1.12772e-09
3.66226e-09
-1.20937e-09
4.18412e-09
-1.27508e-09
4.65847e-09
-1.27081e-09
4.95703e-09
-1.03487e-09
4.78718e-09
-1.22429e-10
3.58425e-09
2.64215e-09
9.95458e-09
1.03148e-09
1.44412e-11
-2.42581e-12
1.14971e-10
-2.32916e-10
3.10503e-10
-4.90361e-10
5.92357e-10
-7.21888e-10
9.50302e-10
-9.25293e-10
1.37497e-09
-1.10472e-09
1.8581e-09
-1.26469e-09
2.39201e-09
-1.40833e-09
2.96902e-09
-1.53816e-09
3.58065e-09
-1.6563e-09
4.2157e-09
-1.76278e-09
4.85524e-09
-1.84892e-09
5.46097e-09
-1.88081e-09
5.95129e-09
-1.76114e-09
6.15909e-09
-1.24267e-09
5.78193e-09
2.54735e-10
4.41572e-09
4.00836e-09
1.22838e-08
2.08654e-09
3.14917e-11
-3.39175e-11
1.73864e-10
-3.75289e-10
4.34264e-10
-7.50761e-10
8.02225e-10
-1.08985e-09
1.26496e-09
-1.38802e-09
1.81015e-09
-1.64992e-09
2.42622e-09
-1.88076e-09
3.10149e-09
-2.0836e-09
3.82315e-09
-2.25982e-09
4.57578e-09
-2.40893e-09
5.33812e-09
-2.52512e-09
6.07645e-09
-2.58724e-09
6.73135e-09
-2.53571e-09
7.19533e-09
-2.22512e-09
7.2843e-09
-1.33165e-09
6.73171e-09
8.07321e-10
5.30939e-09
5.43068e-09
1.43267e-08
3.26649e-09
5.35651e-11
-8.74826e-11
2.4588e-10
-5.67604e-10
5.79545e-10
-1.08443e-09
1.04176e-09
-1.55207e-09
1.61692e-09
-1.96318e-09
2.28939e-09
-2.32239e-09
3.04359e-09
-2.63496e-09
3.86286e-09
-2.90286e-09
4.72788e-09
-3.12485e-09
5.61442e-09
-3.29546e-09
6.48922e-09
-3.39992e-09
7.30261e-09
-3.40063e-09
7.97618e-09
-3.20927e-09
8.38658e-09
-2.63553e-09
8.3558e-09
-1.30086e-09
7.68233e-09
1.48079e-09
6.29587e-09
6.81714e-09
1.60476e-08
4.57493e-09
8.02586e-11
-1.67741e-10
3.30264e-10
-8.1761e-10
7.44955e-10
-1.49912e-09
1.30834e-09
-2.11545e-09
2.00161e-09
-2.65645e-09
2.80546e-09
-3.12623e-09
3.69969e-09
-3.52919e-09
4.66178e-09
-3.86495e-09
5.66475e-09
-4.12782e-09
6.67434e-09
-4.30505e-09
7.64453e-09
-4.37011e-09
8.51072e-09
-4.26683e-09
9.18076e-09
-3.87931e-09
9.52781e-09
-2.98258e-09
9.39916e-09
-1.17221e-09
8.67104e-09
2.20891e-09
7.39849e-09
8.08969e-09
1.74262e-08
6.01991e-09
1.10835e-10
-2.78576e-10
4.25222e-10
-1.132e-09
9.27246e-10
-2.00114e-09
1.59659e-09
-2.7848e-09
2.41083e-09
-3.47068e-09
3.3466e-09
-4.062e-09
4.37868e-09
-4.56128e-09
5.4781e-09
-4.96436e-09
6.60958e-09
-5.25931e-09
7.7285e-09
-5.42397e-09
8.7768e-09
-5.41841e-09
9.67807e-09
-5.16809e-09
1.03336e-08
-4.5348e-09
1.0625e-08
-3.27406e-09
1.04379e-08
-9.85084e-10
9.72542e-09
2.9214e-09
8.63224e-09
9.18287e-09
1.84491e-08
7.60935e-09
1.44145e-10
-4.22722e-10
5.27676e-10
-1.51553e-09
1.12082e-09
-2.59428e-09
1.89768e-09
-3.56166e-09
2.83175e-09
-4.40475e-09
3.89544e-09
-5.12569e-09
5.05833e-09
-5.72418e-09
6.28489e-09
-6.19092e-09
7.53168e-09
-6.50609e-09
8.74448e-09
-6.63678e-09
9.85541e-09
-6.52934e-09
1.07809e-08
-6.09357e-09
1.14234e-08
-5.1773e-09
1.16829e-08
-3.53361e-09
1.14888e-08
-7.90933e-10
1.08615e-08
3.54871e-09
1.00028e-08
1.00416e-08
1.91048e-08
9.34705e-09
1.78731e-10
-6.01453e-10
6.33042e-10
-1.96984e-09
1.31722e-09
-3.27846e-09
2.19855e-09
-4.443e-09
3.24604e-09
-5.45224e-09
4.42791e-09
-6.30756e-09
5.70886e-09
-7.00512e-09
7.04731e-09
-7.52938e-09
8.39272e-09
-7.8515e-09
9.68324e-09
-7.9273e-09
1.08446e-08
-7.69072e-09
1.17916e-08
-7.04053e-09
1.24349e-08
-5.82057e-09
1.26989e-08
-3.79764e-09
1.25563e-08
-6.48295e-10
1.20804e-08
4.02458e-09
1.15036e-08
1.06183e-08
1.93804e-08
1.12279e-08
1.77754e-10
-7.79207e-10
6.13591e-10
-2.40568e-09
1.25764e-09
-3.9225e-09
2.07579e-09
-5.26115e-09
3.03816e-09
-6.41462e-09
4.11505e-09
-7.38444e-09
5.27351e-09
-8.16359e-09
6.47481e-09
-8.73068e-09
7.67227e-09
-9.04896e-09
8.81011e-09
-9.06514e-09
9.824e-09
-8.70461e-09
1.06448e-08
-7.86129e-09
1.12075e-08
-6.38328e-09
1.14689e-08
-4.05909e-09
1.14353e-08
-6.14718e-10
1.11974e-08
4.26248e-09
1.09592e-08
1.08566e-08
1.93083e-08
1.10313e-08
2.29939e-10
-1.00915e-09
7.83947e-10
-2.95968e-09
1.58761e-09
-4.72616e-09
2.59541e-09
-6.26895e-09
3.76942e-09
-7.58863e-09
5.07296e-09
-8.68798e-09
6.46588e-09
-9.55651e-09
7.90132e-09
-1.01661e-08
9.32353e-09
-1.04712e-08
1.06675e-08
-1.04091e-08
1.18614e-08
-9.89847e-09
1.2833e-08
-8.83288e-09
1.35227e-08
-7.07298e-09
1.39039e-08
-4.44034e-09
1.40111e-08
-7.21867e-10
1.39687e-08
4.30483e-09
1.4008e-08
1.08173e-08
1.88705e-08
1.44458e-08
2.88006e-10
-1.29715e-09
9.72548e-10
-3.64423e-09
1.94817e-09
-5.70178e-09
3.15512e-09
-7.4759e-09
4.54676e-09
-8.98027e-09
6.07971e-09
-1.02209e-08
7.70764e-09
-1.11844e-08
9.37731e-09
-1.18358e-08
1.10265e-08
-1.21204e-08
1.25849e-08
-1.19675e-08
1.39782e-08
-1.12918e-08
1.51381e-08
-9.99282e-09
1.60176e-08
-7.95248e-09
1.66126e-08
-5.03533e-09
1.6987e-08
-1.09622e-09
1.72937e-08
3.99814e-09
1.77787e-08
1.03323e-08
1.78959e-08
1.87533e-08
3.42156e-10
-1.63931e-09
1.14567e-09
-4.44774e-09
2.27265e-09
-6.82876e-09
3.64795e-09
-8.8512e-09
5.21752e-09
-1.05498e-08
6.93398e-09
-1.19374e-08
8.74898e-09
-1.29994e-08
1.06083e-08
-1.36951e-08
1.24503e-08
-1.39623e-08
1.42071e-08
-1.37243e-08
1.58115e-08
-1.28962e-08
1.72079e-08
-1.13892e-08
1.83688e-08
-9.11338e-09
1.93149e-08
-5.98149e-09
2.0135e-08
-1.91631e-09
2.09979e-08
3.13527e-09
2.21477e-08
9.18248e-09
1.61682e-08
2.38755e-08
3.696e-10
-2.00891e-09
1.22764e-09
-5.30578e-09
2.41344e-09
-8.01456e-09
3.84136e-09
-1.02791e-08
5.45572e-09
-1.21642e-08
7.2126e-09
-1.36943e-08
9.07082e-09
-1.48577e-08
1.09864e-08
-1.56107e-08
1.29107e-08
-1.58866e-08
1.47923e-08
-1.56058e-08
1.65835e-08
-1.46874e-08
1.82518e-08
-1.30575e-08
1.97944e-08
-1.0656e-08
2.12542e-08
-7.44125e-09
2.27332e-08
-3.39528e-09
2.43979e-08
1.4705e-09
2.6471e-08
7.10944e-09
1.34332e-08
2.9206e-08
3.26597e-10
-2.33551e-09
1.07412e-09
-6.05331e-09
2.09078e-09
-9.03121e-09
3.29825e-09
-1.14866e-08
4.65319e-09
-1.35191e-08
6.12947e-09
-1.51706e-08
7.70901e-09
-1.64372e-08
9.37587e-09
-1.72776e-08
1.11134e-08
-1.76241e-08
1.29051e-08
-1.73975e-08
1.47394e-08
-1.65218e-08
1.6618e-08
-1.49362e-08
1.85661e-08
-1.26041e-08
2.0643e-08
-9.51811e-09
2.29494e-08
-5.70173e-09
2.56294e-08
-1.20943e-09
2.88624e-08
3.87637e-09
9.44831e-09
3.28474e-08
1.40716e-10
-2.47622e-09
4.5035e-10
-6.36294e-09
8.53817e-10
-9.43468e-09
1.31749e-09
-1.19503e-08
1.8348e-09
-1.40365e-08
2.41833e-09
-1.57541e-08
3.09388e-09
-1.71128e-08
3.89528e-09
-1.8079e-08
4.86047e-09
-1.85893e-08
6.0298e-09
-1.85668e-08
7.44679e-09
-1.79387e-08
9.16105e-09
-1.66504e-08
1.12326e-08
-1.46757e-08
1.37361e-08
-1.20216e-08
1.67634e-08
-8.72907e-09
2.04233e-08
-4.86937e-09
2.4838e-08
-5.38306e-10
4.15224e-09
3.01341e-08
-2.78887e-10
-2.19733e-09
-9.21229e-10
-5.7206e-09
-1.81996e-09
-8.53595e-09
-2.91273e-09
-1.08575e-08
-4.14128e-09
-1.28079e-08
-5.43566e-09
-1.44597e-08
-6.71055e-09
-1.58379e-08
-7.8665e-09
-1.6923e-08
-8.79339e-09
-1.76624e-08
-9.37465e-09
-1.79856e-08
-9.49157e-09
-1.78218e-08
-9.02707e-09
-1.71149e-08
-7.86873e-09
-1.5834e-08
-5.91123e-09
-1.39791e-08
-3.05845e-09
-1.15819e-08
7.74564e-10
-8.70238e-09
5.65931e-09
-5.42305e-09
-1.83965e-09
1.16512e-08
-4.71255e-10
-1.72608e-09
-1.54978e-09
-4.64207e-09
-3.0458e-09
-7.03993e-09
-4.86139e-09
-9.0419e-09
-6.92609e-09
-1.07432e-08
-9.1713e-09
-1.22145e-08
-1.15201e-08
-1.3489e-08
-1.38835e-08
-1.45597e-08
-1.61596e-08
-1.53862e-08
-1.82368e-08
-1.59085e-08
-1.9997e-08
-1.60616e-08
-2.13223e-08
-1.57897e-08
-2.20999e-08
-1.50564e-08
-2.22282e-08
-1.38508e-08
-2.16211e-08
-1.2189e-08
-2.02112e-08
-1.01123e-08
-1.79515e-08
-7.68277e-09
-4.97682e-09
-1.48143e-08
-5.1488e-10
-1.2112e-09
-1.70448e-09
-3.45247e-09
-3.36875e-09
-5.37566e-09
-5.40728e-09
-7.00338e-09
-7.75242e-09
-8.39807e-09
-1.03442e-08
-9.62268e-09
-1.31191e-08
-1.07141e-08
-1.60037e-08
-1.16752e-08
-1.89114e-08
-1.24785e-08
-2.17434e-08
-1.30765e-08
-2.43906e-08
-1.34143e-08
-2.67393e-08
-1.3441e-08
-2.8677e-08
-1.31188e-08
-3.00986e-08
-1.24292e-08
-3.09127e-08
-1.13748e-08
-3.10459e-08
-9.97909e-09
-3.04454e-08
-8.28322e-09
-6.34216e-09
-2.90801e-08
-4.53048e-10
-7.58152e-10
-1.52546e-09
-2.38006e-09
-3.0538e-09
-3.84731e-09
-4.95397e-09
-5.10321e-09
-7.16917e-09
-6.18287e-09
-9.65242e-09
-7.13943e-09
-1.23572e-08
-8.00937e-09
-1.52304e-08
-8.80191e-09
-1.82084e-08
-9.50052e-09
-2.12144e-08
-1.00705e-08
-2.41599e-08
-1.04688e-08
-2.6948e-08
-1.06528e-08
-2.94785e-08
-1.05883e-08
-3.16536e-08
-1.0254e-08
-3.33841e-08
-9.64432e-09
-3.45939e-08
-8.76931e-09
-3.5224e-08
-7.65309e-09
-6.33205e-09
-3.52341e-08
-3.44728e-10
-4.13424e-10
-1.19758e-09
-1.52721e-09
-2.44928e-09
-2.59561e-09
-4.03654e-09
-3.51595e-09
-5.91376e-09
-4.30564e-09
-8.04535e-09
-5.00784e-09
-1.03993e-08
-5.65542e-09
-1.29409e-08
-6.26035e-09
-1.56273e-08
-6.81405e-09
-1.8405e-08
-7.29288e-09
-2.12085e-08
-7.66526e-09
-2.39628e-08
-7.89855e-09
-2.65865e-08
-7.96461e-09
-2.89968e-08
-7.84378e-09
-3.11141e-08
-7.52703e-09
-3.2867e-08
-7.01634e-09
-3.41961e-08
-6.32398e-09
-5.47196e-09
-3.50562e-08
-2.30782e-10
-1.82642e-10
-8.47976e-10
-9.10012e-10
-1.79345e-09
-1.65014e-09
-3.02169e-09
-2.28771e-09
-4.49617e-09
-2.83117e-09
-6.18983e-09
-3.31418e-09
-8.08133e-09
-3.76391e-09
-1.01495e-08
-4.19216e-09
-1.23683e-08
-4.59531e-09
-1.47029e-08
-4.95826e-09
-1.71087e-08
-5.25943e-09
-1.95317e-08
-5.47557e-09
-2.19106e-08
-5.58571e-09
-2.41804e-08
-5.57397e-09
-2.62762e-08
-5.43125e-09
-2.81368e-08
-5.15575e-09
-2.97082e-08
-4.75259e-09
-4.23369e-09
-3.09464e-08
-1.33589e-10
-4.90526e-11
-5.45107e-10
-4.98495e-10
-1.21445e-09
-9.80802e-10
-2.10867e-09
-1.39348e-09
-3.19824e-09
-1.7416e-09
-4.46247e-09
-2.04995e-09
-5.88737e-09
-2.33901e-09
-7.46098e-09
-2.61854e-09
-9.16873e-09
-2.88757e-09
-1.09899e-08
-3.13708e-09
-1.2896e-08
-3.35336e-09
-1.48504e-08
-3.52114e-09
-1.681e-08
-3.62614e-09
-1.8727e-08
-3.65698e-09
-2.05519e-08
-3.60627e-09
-2.22366e-08
-3.47113e-09
-2.37361e-08
-3.25301e-09
-2.95745e-09
-2.50124e-08
-6.18833e-11
1.28307e-11
-3.14828e-10
-2.4555e-10
-7.61244e-10
-5.34385e-10
-1.3764e-09
-7.78329e-10
-2.13662e-09
-9.81387e-10
-3.02626e-09
-1.1603e-09
-4.03637e-09
-1.32891e-09
-5.1608e-09
-1.49411e-09
-6.39235e-09
-1.65602e-09
-7.7197e-09
-1.80972e-09
-9.12582e-09
-1.94724e-09
-1.05875e-08
-2.05948e-09
-1.20759e-08
-2.13769e-09
-1.35583e-08
-2.17463e-09
-1.49993e-08
-2.16523e-09
-1.63635e-08
-2.10694e-09
-1.76168e-08
-1.99971e-09
-1.84555e-09
-1.87287e-08
-1.61687e-11
2.89994e-11
-1.57801e-10
-1.03918e-10
-4.36581e-10
-2.55605e-10
-8.33459e-10
-3.81451e-10
-1.33024e-09
-4.84601e-10
-1.91562e-09
-5.74922e-10
-2.58411e-09
-6.60427e-10
-3.33301e-09
-7.452e-10
-4.15942e-09
-8.29614e-10
-5.05785e-09
-9.11288e-10
-6.01892e-09
-9.86176e-10
-7.02885e-09
-1.04955e-09
-8.06978e-09
-1.09677e-09
-9.12051e-09
-1.12389e-09
-1.01577e-08
-1.12799e-09
-1.11573e-08
-1.10739e-09
-1.20953e-08
-1.06168e-09
-9.9127e-10
-1.29496e-08
7.37229e-12
2.16271e-11
-6.26531e-11
-3.3893e-11
-2.21498e-10
-9.67605e-11
-4.55111e-10
-1.47837e-10
-7.50734e-10
-1.88978e-10
-1.10089e-09
-2.24762e-10
-1.50253e-09
-2.58794e-10
-1.9548e-09
-2.92926e-10
-2.457e-09
-3.27415e-10
-3.00694e-09
-3.61347e-10
-3.60002e-09
-3.93096e-10
-4.22884e-09
-4.20728e-10
-4.88329e-09
-4.4232e-10
-5.55099e-09
-4.56189e-10
-6.21795e-09
-4.61042e-10
-6.86928e-09
-4.5606e-10
-7.49003e-09
-4.40925e-10
-4.15557e-10
-8.06575e-09
1.37887e-11
7.83841e-12
-1.42312e-11
-5.8731e-12
-9.03576e-11
-2.06341e-11
-2.05846e-10
-3.23491e-11
-3.53248e-10
-4.15764e-11
-5.28469e-10
-4.95408e-11
-7.30103e-10
-5.716e-11
-9.58123e-10
-6.49052e-11
-1.21268e-09
-7.28584e-11
-1.49321e-09
-8.08205e-11
-1.79788e-09
-8.84204e-11
-2.1234e-09
-9.52097e-11
-2.46498e-09
-1.00736e-10
-2.81658e-09
-1.04594e-10
-3.17116e-09
-1.06462e-10
-3.5211e-09
-1.06118e-10
-3.8586e-09
-1.0343e-10
-9.83327e-11
-4.17582e-09
7.83841e-12
1.96531e-12
-1.86688e-11
-5.10179e-11
-9.25943e-11
-1.42135e-10
-1.99295e-10
-2.642e-10
-3.37059e-10
-4.17879e-10
-5.063e-10
-6.01509e-10
-7.02245e-10
-8.06839e-10
-9.13302e-10
-1.01942e-09
-1.12285e-09
-1.22118e-09
1.19225e-10
-1.19225e-10
4.25873e-10
-3.06647e-10
8.51186e-10
-4.25313e-10
1.327e-09
-4.75817e-10
1.79794e-09
-4.70937e-10
2.22147e-09
-4.23531e-10
2.56648e-09
-3.45012e-10
2.81142e-09
-2.44938e-10
2.94229e-09
-1.30866e-10
2.95042e-09
-8.13112e-12
2.83146e-09
1.18958e-10
2.58291e-09
2.48555e-10
2.20354e-09
3.79367e-10
1.69233e-09
5.11207e-10
1.0478e-09
6.44532e-10
2.67656e-10
7.80144e-10
-6.51356e-10
9.19011e-10
-1.71336e-09
1.062e-09
-2.923e-09
1.20964e-09
-4.28506e-09
1.36205e-09
-5.8039e-09
1.51884e-09
-7.48296e-09
1.67906e-09
-9.32412e-09
1.84116e-09
-1.13271e-08
2.00302e-09
-1.34891e-08
2.16197e-09
-1.5804e-08
2.31489e-09
-1.82622e-08
2.45823e-09
-2.08504e-08
2.58814e-09
-2.35509e-08
2.70057e-09
-2.63423e-08
2.79135e-09
-2.91987e-08
2.85637e-09
-3.20903e-08
2.89167e-09
-3.49839e-08
2.89358e-09
-3.78428e-08
2.85891e-09
-4.06278e-08
2.78502e-09
-4.32978e-08
2.66998e-09
-4.58105e-08
2.51268e-09
-4.81234e-08
2.31288e-09
-5.01947e-08
2.07129e-09
-5.19842e-08
1.78955e-09
-5.34545e-08
1.47023e-09
-5.45712e-08
1.11676e-09
-5.53046e-08
7.33378e-10
-5.56299e-08
3.25311e-10
-5.55262e-08
-1.03694e-10
-5.49791e-08
-5.47159e-10
-5.39819e-08
-9.97191e-10
-5.25327e-08
-1.44914e-09
-5.06358e-08
-1.89693e-09
-4.83007e-08
-2.33507e-09
-4.55422e-08
-2.75854e-09
-4.23793e-08
-3.16289e-09
-3.8835e-08
-3.54428e-09
-3.49356e-08
-3.89943e-09
-3.071e-08
-4.22558e-09
-2.61896e-08
-4.52036e-09
-2.1408e-08
-4.78164e-09
-1.64007e-08
-5.00733e-09
-1.12055e-08
-5.19519e-09
-5.86299e-09
-5.34249e-09
-4.17452e-10
-5.44554e-09
5.08484e-09
-5.50229e-09
1.05934e-08
-5.50855e-09
1.60518e-08
-5.45837e-09
2.13998e-08
-5.34801e-09
2.65732e-08
-5.17339e-09
3.1504e-08
-4.93087e-09
3.61218e-08
-4.61778e-09
4.03548e-08
-4.23297e-09
4.4132e-08
-3.77726e-09
4.73859e-08
-3.2539e-09
5.00548e-08
-2.66889e-09
5.2086e-08
-2.03116e-09
5.34387e-08
-1.3527e-09
5.40879e-08
-6.49162e-10
5.40192e-08
6.86462e-11
5.32515e-08
7.67732e-10
5.18121e-08
1.43943e-09
4.97513e-08
2.0608e-09
4.71378e-08
2.61349e-09
4.40565e-08
3.08122e-09
4.06054e-08
3.4511e-09
3.68908e-08
3.71464e-09
3.30224e-08
3.86841e-09
2.9108e-08
3.91437e-09
2.52483e-08
3.85973e-09
2.1532e-08
3.71631e-09
1.80325e-08
3.49953e-09
1.48055e-08
3.22698e-09
1.18885e-08
2.91694e-09
9.30173e-09
2.58681e-09
7.04978e-09
2.25195e-09
5.12503e-09
1.92475e-09
3.51057e-09
1.61446e-09
2.18307e-09
1.32751e-09
1.11481e-09
1.06826e-09
2.74967e-10
8.39847e-10
-3.69852e-10
6.44819e-10
-8.54965e-10
4.85113e-10
-1.2166e-09
3.6163e-10
-1.4903e-09
2.73707e-10
-1.70898e-09
2.18679e-10
-1.90083e-09
1.91853e-10
-2.08789e-09
1.87056e-10
-2.28534e-09
1.9745e-10
-2.50174e-09
2.16399e-10
-2.73989e-09
2.3815e-10
-2.9981e-09
2.58214e-10
-3.27157e-09
2.73465e-10
-3.55359e-09
2.82018e-10
-3.8366e-09
2.83015e-10
-4.11298e-09
2.76379e-10
-4.37558e-09
2.62596e-10
-4.61811e-09
2.42534e-10
-4.83541e-09
2.17302e-10
-5.02355e-09
1.88142e-10
-5.17989e-09
1.56337e-10
-5.30303e-09
1.23141e-10
-5.39276e-09
8.97258e-11
-5.44988e-09
5.71259e-11
-5.47607e-09
2.61826e-11
-5.47409e-09
-1.97277e-12
-5.44618e-09
-2.79078e-11
-5.3961e-09
-5.00858e-11
-5.32715e-09
-6.89484e-11
-5.24278e-09
-8.43705e-11
-5.14633e-09
-9.64457e-11
-5.04097e-09
-1.05368e-10
-4.92956e-09
-1.11402e-10
-4.81471e-09
-1.14857e-10
-4.69864e-09
-1.16068e-10
-4.58326e-09
-1.15375e-10
-4.47015e-09
-1.13109e-10
-4.36057e-09
-1.09584e-10
-4.25548e-09
-1.05088e-10
-4.15561e-09
-9.98777e-11
-4.06143e-09
-9.41776e-11
-3.97325e-09
-8.81804e-11
-3.8912e-09
-8.20465e-11
-3.81529e-09
-7.59079e-11
-3.74542e-09
-6.98701e-11
-3.68141e-09
-6.4015e-11
-3.623e-09
-5.84049e-11
-3.56992e-09
-5.30844e-11
-3.52183e-09
-4.80843e-11
-3.47841e-09
-4.34235e-11
-3.4393e-09
-3.91113e-11
-3.40415e-09
-3.51497e-11
-3.37261e-09
-3.15343e-11
-3.34436e-09
-2.82562e-11
-3.31906e-09
-2.53028e-11
-3.2964e-09
-2.26588e-11
-3.27609e-09
-2.03068e-11
-3.25786e-09
-1.82281e-11
-3.24146e-09
-1.64028e-11
-3.22665e-09
-1.48104e-11
-3.21322e-09
-1.34301e-11
-3.20098e-09
-1.22398e-11
-3.18976e-09
-1.12163e-11
-3.17943e-09
-1.0334e-11
-3.16987e-09
-9.56275e-12
-3.161e-09
-8.8649e-12
-3.15281e-09
-8.1937e-12
-3.14532e-09
-7.49034e-12
-3.13863e-09
-6.6857e-12
-3.13292e-09
-5.70772e-12
-3.12842e-09
-4.49891e-12
-3.12538e-09
-3.04836e-12
-3.12397e-09
-1.40678e-12
-3.12421e-09
2.44559e-13
-3.1256e-09
1.38219e-12
-3.12711e-09
1.5148e-12
-3.12695e-09
-1.6274e-13
-3.12195e-09
-5.00063e-12
-3.10796e-09
-1.39861e-11
-3.07889e-09
-2.90696e-11
-3.02536e-09
-5.3527e-11
-2.93213e-09
-9.32379e-11
-2.77615e-09
-1.55981e-10
-3.52871e-10
-2.42327e-09
2.35669e-10
-3.54895e-10
7.53778e-10
-8.24757e-10
1.40971e-09
-1.08124e-09
2.08766e-09
-1.15376e-09
2.6923e-09
-1.07558e-09
3.14752e-09
-8.78748e-10
3.39422e-09
-5.91717e-10
3.38776e-09
-2.38476e-10
3.09507e-09
1.61822e-10
2.49236e-09
5.94576e-10
1.56201e-09
1.04931e-09
2.91425e-10
1.51914e-09
-1.3293e-09
2.00009e-09
-3.30844e-09
2.49034e-09
-5.65342e-09
2.98952e-09
-8.37128e-09
3.498e-09
-1.14685e-08
4.01624e-09
-1.49506e-08
4.54415e-09
-1.88216e-08
5.08059e-09
-2.30825e-08
5.623e-09
-2.77309e-08
6.16716e-09
-3.27589e-08
6.70707e-09
-3.81527e-08
7.235e-09
-4.38913e-08
7.74162e-09
-4.99456e-08
8.21625e-09
-5.62779e-08
8.64716e-09
-6.28416e-08
9.02196e-09
-6.95814e-08
9.32797e-09
-7.64336e-08
9.55272e-09
-8.33265e-08
9.68432e-09
-9.01821e-08
9.71196e-09
-9.69168e-08
9.62631e-09
-1.03443e-07
9.41987e-09
-1.09671e-07
9.08731e-09
-1.15512e-07
8.62572e-09
-1.20877e-07
8.03476e-09
-1.25681e-07
7.31675e-09
-1.29845e-07
6.47664e-09
-1.33295e-07
5.52194e-09
-1.35968e-07
4.46248e-09
-1.37808e-07
3.31013e-09
-1.3877e-07
2.07844e-09
-1.38819e-07
7.82721e-10
-1.37932e-07
-5.61639e-10
-1.36099e-07
-1.93752e-09
-1.33319e-07
-3.32704e-09
-1.29602e-07
-4.71374e-09
-1.24969e-07
-6.08225e-09
-1.19448e-07
-7.41819e-09
-1.13074e-07
-8.70858e-09
-1.05891e-07
-9.94202e-09
-9.79448e-08
-1.11088e-08
-8.92883e-08
-1.22008e-08
-7.99763e-08
-1.32114e-08
-7.00665e-08
-1.41354e-08
-5.96187e-08
-1.49681e-08
-4.86948e-08
-1.57056e-08
-3.73585e-08
-1.63436e-08
-2.56763e-08
-1.68774e-08
-1.37179e-08
-1.7301e-08
-1.55671e-09
-1.76067e-08
1.07252e-08
-1.77842e-08
2.30382e-08
-1.78215e-08
3.52868e-08
-1.7707e-08
4.73666e-08
-1.74279e-08
5.91642e-08
-1.6971e-08
7.0557e-08
-1.63236e-08
8.14141e-08
-1.54749e-08
9.15981e-08
-1.4417e-08
1.00967e-07
-1.31462e-08
1.09378e-07
-1.16645e-08
1.16689e-07
-9.98065e-09
1.22769e-07
-8.11067e-09
1.27495e-07
-6.07901e-09
1.30765e-07
-3.91861e-09
1.32504e-07
-1.6702e-09
1.32658e-07
6.132e-10
1.31224e-07
2.87325e-09
1.28235e-07
5.05024e-09
1.23768e-07
7.08056e-09
1.17946e-07
8.90313e-09
1.10935e-07
1.04619e-08
1.0294e-07
1.17101e-08
9.41943e-08
1.26137e-08
8.49533e-08
1.31554e-08
7.5477e-08
1.33359e-08
6.60185e-08
1.31749e-08
5.68092e-08
1.27088e-08
4.80481e-08
1.1988e-08
3.98934e-08
1.10716e-08
3.24585e-08
1.00218e-08
2.5812e-08
8.8984e-09
1.99821e-08
7.75473e-09
1.49618e-08
6.63467e-09
1.07169e-08
5.57246e-09
7.19128e-09
4.59385e-09
4.31298e-09
3.71815e-09
1.99799e-09
2.9598e-09
1.54363e-10
2.32874e-09
-1.31366e-09
1.82966e-09
-2.50033e-09
1.46037e-09
-3.49271e-09
1.21106e-09
-4.36585e-09
1.065e-09
-5.17918e-09
1.00039e-09
-5.97495e-09
9.93218e-10
-6.77873e-09
1.02019e-09
-7.60155e-09
1.06096e-09
-8.44285e-09
1.09951e-09
-9.29386e-09
1.12448e-09
-1.01407e-08
1.12882e-09
-1.09668e-08
1.10919e-09
-1.17555e-08
1.06503e-09
-1.24908e-08
9.97894e-10
-1.3159e-08
9.10733e-10
-1.37491e-08
8.07397e-10
-1.42531e-08
6.92205e-10
-1.46664e-08
5.69607e-10
-1.49872e-08
4.43921e-10
-1.52166e-08
3.19125e-10
-1.53582e-08
1.98706e-10
-1.54176e-08
8.55758e-11
-1.54017e-08
-1.7871e-11
-1.53192e-08
-1.10407e-10
-1.51787e-08
-1.90603e-10
-1.49894e-08
-2.58221e-10
-1.47604e-08
-3.13307e-10
-1.45006e-08
-3.56314e-10
-1.42179e-08
-3.88008e-10
-1.392e-08
-4.0938e-10
-1.36133e-08
-4.21563e-10
-1.33036e-08
-4.25759e-10
-1.29958e-08
-4.23181e-10
-1.26939e-08
-4.15007e-10
-1.24011e-08
-4.02345e-10
-1.212e-08
-3.8621e-10
-1.18523e-08
-3.67506e-10
-1.15995e-08
-3.4703e-10
-1.13622e-08
-3.25459e-10
-1.11409e-08
-3.03364e-10
-1.09356e-08
-2.81214e-10
-1.07461e-08
-2.59388e-10
-1.05719e-08
-2.3818e-10
-1.04125e-08
-2.17817e-10
-1.02671e-08
-1.98464e-10
-1.0135e-08
-1.80236e-10
-1.00152e-08
-1.63208e-10
-9.90688e-09
-1.47417e-10
-9.80915e-09
-1.32877e-10
-9.72111e-09
-1.19575e-10
-9.64188e-09
-1.07485e-10
-9.57062e-09
-9.65662e-11
-9.50651e-09
-8.67661e-11
-9.44879e-09
-7.80254e-11
-9.39674e-09
-7.02797e-11
-9.34968e-09
-6.34597e-11
-9.307e-09
-5.74936e-11
-9.26812e-09
-5.23065e-11
-9.23254e-09
-4.78209e-11
-9.1998e-09
-4.39537e-11
-9.16953e-09
-4.06132e-11
-9.1414e-09
-3.76922e-11
-9.1152e-09
-3.50594e-11
-9.09084e-09
-3.25523e-11
-9.06836e-09
-2.99718e-11
-9.04796e-09
-2.70887e-11
-9.02999e-09
-2.36752e-11
-9.01492e-09
-1.95672e-11
-9.0032e-09
-1.47724e-11
-8.995e-09
-9.60907e-12
-8.98985e-09
-4.89861e-12
-8.98631e-09
-2.15625e-12
-8.98119e-09
-3.61466e-12
-8.969e-09
-1.23454e-11
-8.9417e-09
-3.23004e-11
-8.88762e-09
-6.80644e-11
-8.79103e-09
-1.25667e-10
-8.63014e-09
-2.14415e-10
-8.37428e-09
-3.49093e-10
-7.97081e-09
-5.59459e-10
-9.7681e-10
-7.34687e-09
2.07596e-10
-5.62491e-10
6.16197e-10
-1.23336e-09
1.06131e-09
-1.52635e-09
1.41591e-09
-1.50837e-09
1.57879e-09
-1.23846e-09
1.4689e-09
-7.68859e-10
1.02146e-09
-1.44279e-10
1.84847e-10
5.98137e-10
-1.08212e-09
1.42879e-09
-2.81231e-09
2.32476e-09
-5.03205e-09
3.26905e-09
-7.7626e-09
4.24969e-09
-1.10212e-08
5.25865e-09
-1.48215e-08
6.29067e-09
-1.91741e-08
7.34216e-09
-2.40861e-08
8.41002e-09
-2.95605e-08
9.49062e-09
-3.55952e-08
1.05788e-08
-4.21816e-08
1.16671e-08
-4.93039e-08
1.27453e-08
-5.69371e-08
1.38004e-08
-6.50461e-08
1.48161e-08
-7.35848e-08
1.57736e-08
-8.24954e-08
1.66522e-08
-9.17085e-08
1.74294e-08
-1.01144e-07
1.80823e-08
-1.1071e-07
1.85881e-08
-1.20307e-07
1.89252e-08
-1.29828e-07
1.90737e-08
-1.3916e-07
1.90166e-08
-1.48189e-07
1.87403e-08
-1.56797e-07
1.82349e-08
-1.64872e-07
1.74949e-08
-1.72304e-07
1.65192e-08
-1.7899e-07
1.53114e-08
-1.84834e-07
1.38793e-08
-1.89753e-07
1.22354e-08
-1.93672e-07
1.03956e-08
-1.9653e-07
8.3796e-09
-1.98277e-07
6.20991e-09
-1.98878e-07
3.91133e-09
-1.9831e-07
1.5106e-09
-1.96564e-07
-9.64061e-10
-1.93641e-07
-3.48388e-09
-1.89558e-07
-6.02038e-09
-1.84339e-07
-8.54661e-09
-1.78015e-07
-1.10372e-08
-1.70629e-07
-1.34685e-08
-1.62228e-07
-1.58196e-08
-1.52865e-07
-1.80716e-08
-1.42598e-07
-2.0209e-08
-1.31488e-07
-2.22185e-08
-1.19599e-07
-2.409e-08
-1.06995e-07
-2.58155e-08
-9.37413e-08
-2.73889e-08
-7.99041e-08
-2.88053e-08
-6.55494e-08
-3.00603e-08
-5.07439e-08
-3.11491e-08
-3.5556e-08
-3.20653e-08
-2.00562e-08
-3.28007e-08
-4.3189e-09
-3.3344e-08
1.15756e-08
-3.36788e-08
2.75386e-08
-3.37845e-08
4.34723e-08
-3.36406e-08
5.92694e-08
-3.32249e-08
7.48114e-08
-3.2513e-08
8.99684e-08
-3.14805e-08
1.04599e-07
-3.01051e-08
1.1855e-07
-2.83679e-08
1.31659e-07
-2.6256e-08
1.43759e-07
-2.37643e-08
1.54675e-07
-2.08969e-08
1.64234e-07
-1.76697e-08
1.72266e-07
-1.41108e-08
1.7861e-07
-1.02627e-08
1.83123e-07
-6.18257e-09
1.85679e-07
-1.94289e-09
1.86187e-07
2.3652e-09
1.84598e-07
6.63891e-09
1.80916e-07
1.07624e-08
1.75202e-07
1.46176e-08
1.67577e-07
1.80865e-08
1.5823e-07
2.10577e-08
1.47408e-07
2.34352e-08
1.35416e-07
2.51472e-08
1.22599e-07
2.61533e-08
1.09324e-07
2.64502e-08
9.59595e-08
2.60729e-08
8.28546e-08
2.5093e-08
7.03154e-08
2.36108e-08
5.85914e-08
2.17457e-08
4.7866e-08
1.96238e-08
3.82545e-08
1.73663e-08
2.98076e-08
1.50815e-08
2.25202e-08
1.28599e-08
1.63407e-08
1.07733e-08
1.11812e-08
8.87765e-09
6.92669e-09
7.21428e-09
3.44411e-09
5.81133e-09
5.91222e-10
4.68254e-09
-1.77402e-09
3.82561e-09
-3.78418e-09
3.22122e-09
-5.55409e-09
2.8349e-09
-7.17551e-09
2.6218e-09
-8.71489e-09
2.5326e-09
-1.02141e-08
2.51942e-09
-1.16936e-08
2.54043e-09
-1.31566e-08
2.56253e-09
-1.45943e-08
2.56213e-09
-1.599e-08
2.52452e-09
-1.73233e-08
2.44252e-09
-1.85731e-08
2.31482e-09
-1.97196e-08
2.14446e-09
-2.07463e-08
1.93739e-09
-2.16403e-08
1.70139e-09
-2.23933e-08
1.44517e-09
-2.30013e-08
1.17763e-09
-2.34647e-08
9.07317e-10
-2.37876e-08
6.42018e-10
-2.39773e-08
3.8846e-10
-2.40439e-08
1.52151e-10
-2.39991e-08
-6.26974e-11
-2.38562e-08
-2.53283e-10
-2.36289e-08
-4.17865e-10
-2.33312e-08
-5.55921e-10
-2.29767e-08
-6.67846e-10
-2.25782e-08
-7.54785e-10
-2.21478e-08
-8.18466e-10
-2.16961e-08
-8.61022e-10
-2.12328e-08
-8.84836e-10
-2.07662e-08
-8.92401e-10
-2.03032e-08
-8.86209e-10
-1.98495e-08
-8.68667e-10
-1.94098e-08
-8.42027e-10
-1.89877e-08
-8.08343e-10
-1.85858e-08
-7.69454e-10
-1.82058e-08
-7.26961e-10
-1.7849e-08
-6.8224e-10
-1.7516e-08
-6.36446e-10
-1.72066e-08
-5.90531e-10
-1.69208e-08
-5.45262e-10
-1.66577e-08
-5.01245e-10
-1.64166e-08
-4.5894e-10
-1.61963e-08
-4.18692e-10
-1.59958e-08
-3.80739e-10
-1.58138e-08
-3.45238e-10
-1.5649e-08
-3.12273e-10
-1.55e-08
-2.81876e-10
-1.53655e-08
-2.5403e-10
-1.52443e-08
-2.28683e-10
-1.51351e-08
-2.05757e-10
-1.50367e-08
-1.85148e-10
-1.4948e-08
-1.6674e-10
-1.48679e-08
-1.50401e-10
-1.47954e-08
-1.35993e-10
-1.47295e-08
-1.2337e-10
-1.46694e-08
-1.12379e-10
-1.46144e-08
-1.02863e-10
-1.45637e-08
-9.46504e-11
-1.45167e-08
-8.75558e-11
-1.44731e-08
-8.13614e-11
-1.44323e-08
-7.58054e-11
-1.43943e-08
-7.05667e-11
-1.4359e-08
-6.52591e-11
-1.43267e-08
-5.94512e-11
-1.42976e-08
-5.27304e-11
-1.42723e-08
-4.48385e-11
-1.42512e-08
-3.58889e-11
-1.42342e-08
-2.66643e-11
-1.42201e-08
-1.89694e-11
-1.42063e-08
-1.59468e-11
-1.41876e-08
-2.22928e-11
-1.41557e-08
-4.43128e-11
-1.40981e-08
-8.98266e-11
-1.39981e-08
-1.6807e-10
-1.38335e-08
-2.90269e-10
-1.35762e-08
-4.7174e-10
-1.31895e-08
-7.35826e-10
-1.26257e-08
-1.1232e-09
-1.71462e-09
-1.18879e-08
8.21444e-11
-6.44635e-10
1.51832e-10
-1.30305e-09
6.93799e-11
-1.4439e-09
-2.72925e-10
-1.16606e-09
-9.59801e-10
-5.51581e-10
-2.05934e-09
3.30679e-10
-3.62735e-09
1.42373e-09
-5.71062e-09
2.6814e-09
-8.34871e-09
4.06689e-09
-1.15754e-08
5.55149e-09
-1.54196e-08
7.11316e-09
-1.99048e-08
8.73496e-09
-2.50498e-08
1.04037e-08
-3.08674e-08
1.21083e-08
-3.73638e-08
1.38385e-08
-4.45374e-08
1.55837e-08
-5.23778e-08
1.7331e-08
-6.0864e-08
1.9065e-08
-6.99634e-08
2.07665e-08
-7.96308e-08
2.24127e-08
-8.98071e-08
2.39767e-08
-1.0042e-07
2.54286e-08
-1.11382e-07
2.67363e-08
-1.22596e-07
2.78661e-08
-1.33951e-07
2.87846e-08
-1.45329e-07
2.94599e-08
-1.56603e-07
2.98626e-08
-1.67645e-07
2.99672e-08
-1.78325e-07
2.9753e-08
-1.88513e-07
2.92048e-08
-1.98086e-07
2.83137e-08
-2.06928e-07
2.70767e-08
-2.14931e-07
2.54975e-08
-2.21997e-07
2.35856e-08
-2.28042e-07
2.13565e-08
-2.32994e-07
1.88308e-08
-2.36792e-07
1.60339e-08
-2.39392e-07
1.29952e-08
-2.4076e-07
9.74718e-09
-2.40875e-07
6.32516e-09
-2.3973e-07
2.76633e-09
-2.37329e-07
-8.90443e-10
-2.33686e-07
-4.60671e-09
-2.28826e-07
-8.34442e-09
-2.22778e-07
-1.20675e-08
-2.15584e-07
-1.57413e-08
-2.07287e-07
-1.93337e-08
-1.9794e-07
-2.28152e-08
-1.876e-07
-2.61598e-08
-1.76327e-07
-2.9345e-08
-1.64183e-07
-3.23524e-08
-1.51234e-07
-3.51675e-08
-1.37545e-07
-3.77794e-08
-1.2318e-07
-4.01806e-08
-1.08203e-07
-4.23659e-08
-9.26763e-08
-4.43319e-08
-7.6661e-08
-4.60756e-08
-6.02172e-08
-4.75929e-08
-4.34046e-08
-4.88779e-08
-2.62845e-08
-4.99209e-08
-8.92071e-09
-5.07077e-08
8.61937e-09
-5.12188e-08
2.6262e-08
-5.14271e-08
4.39219e-08
-5.13006e-08
6.15038e-08
-5.08068e-08
7.89007e-08
-4.99099e-08
9.59931e-08
-4.8573e-08
1.12649e-07
-4.6761e-08
1.28724e-07
-4.44425e-08
1.44061e-07
-4.1593e-08
1.58494e-07
-3.81972e-08
1.71848e-07
-3.42513e-08
1.83943e-07
-2.97651e-08
1.94597e-07
-2.47641e-08
2.03625e-07
-1.92916e-08
2.10852e-07
-1.34096e-08
2.1611e-07
-7.20054e-09
2.19246e-07
-7.70587e-10
2.20127e-07
5.75792e-09
2.18665e-07
1.22239e-08
2.14821e-07
1.84617e-08
2.08616e-07
2.42921e-08
2.00141e-07
2.95325e-08
1.89568e-07
3.4008e-08
1.7715e-07
3.75648e-08
1.63219e-07
4.0085e-08
1.48168e-07
4.15003e-08
1.32439e-07
4.18021e-08
1.16486e-07
4.10457e-08
1.00751e-07
3.93465e-08
8.56283e-08
3.68683e-08
7.14461e-08
3.3806e-08
5.84473e-08
3.03651e-08
4.67856e-08
2.67433e-08
3.65285e-08
2.31169e-08
2.76676e-08
1.96343e-08
2.01309e-08
1.64143e-08
1.37982e-08
1.3547e-08
8.51488e-09
1.10946e-08
4.10745e-09
9.08998e-09