/*--------------------------------*- C++ -*----------------------------------*\
  =========                 |
  \\      /  F ield         | OpenFOAM: The Open Source CFD Toolbox
   \\    /   O peration     | Website:  https://openfoam.org
    \\  /    A nd           | Version:  8
     \\/     M anipulation  |
\*---------------------------------------------------------------------------*/
FoamFile
{
    version     2.0;
    format      ascii;
    class       volVectorField;
    location    "0.56";
    object      U;
}
// * * * * * * * * * * * * * * * * * * * * * * * * * * * * * * * * * * * * * //

dimensions      [0 1 -1 0 0 0 0];

internalField   nonuniform List<vector> 
12225
(
(-1.00501e-05 1.40791e-06 0)
(-1.1149e-05 -4.3666e-07 0)
(2.24702e-05 -1.58432e-06 0)
(8.43316e-05 -2.69442e-06 0)
(0.000171161 -3.71095e-06 0)
(0.000279628 -4.71951e-06 0)
(0.000407829 -5.75304e-06 0)
(0.000554549 -6.85798e-06 0)
(0.000719373 -8.0973e-06 0)
(0.000902971 -9.58705e-06 0)
(0.00110778 -1.15396e-05 0)
(0.00133898 -1.43326e-05 0)
(0.00160571 -1.86452e-05 0)
(0.00192155 -2.55991e-05 0)
(0.00230241 -3.56628e-05 0)
(0.00276084 -4.07419e-05 0)
(0.00323216 -7.19335e-05 0)
(0.000745469 0.00187292 0)
(-2.14202e-05 4.83081e-06 0)
(-1.24362e-05 -7.99835e-06 0)
(9.1938e-05 -2.2647e-05 0)
(0.000277066 -3.66387e-05 0)
(0.000533911 -4.99295e-05 0)
(0.000853143 -6.29433e-05 0)
(0.0012288 -7.60654e-05 0)
(0.00165663 -8.96778e-05 0)
(0.00213424 -0.000104308 0)
(0.00266157 -0.000120857 0)
(0.00324207 -0.000140833 0)
(0.0038837 -0.000166519 0)
(0.0045987 -0.000200771 0)
(0.00539677 -0.000245032 0)
(0.00626171 -0.000288167 0)
(0.00706245 -0.000247402 0)
(0.00736548 0.000261533 0)
(0.00254066 0.00450927 0)
(-2.61259e-05 8.5125e-06 0)
(5.75979e-06 -2.67827e-05 0)
(0.000187221 -6.91563e-05 0)
(0.000498777 -0.000109992 0)
(0.0009264 -0.000149038 0)
(0.0014552 -0.000187182 0)
(0.00207478 -0.000225371 0)
(0.00277701 -0.000264502 0)
(0.00355606 -0.000305757 0)
(0.00440863 -0.000351056 0)
(0.00533463 -0.000403336 0)
(0.00633662 -0.00046617 0)
(0.00741478 -0.000541214 0)
(0.00854778 -0.000618533 0)
(0.00964084 -0.000640482 0)
(0.0103621 -0.000366029 0)
(0.00994886 0.00111677 0)
(0.00426647 0.00768359 0)
(-2.56554e-05 9.71487e-06 0)
(4.16215e-05 -6.10214e-05 0)
(0.000306749 -0.000147029 0)
(0.000747237 -0.00023055 0)
(0.0013448 -0.000310722 0)
(0.00207941 -0.000388865 0)
(0.00293585 -0.000466577 0)
(0.00390119 -0.000545268 0)
(0.00496446 -0.000626679 0)
(0.0061162 -0.000713435 0)
(0.00734791 -0.000808993 0)
(0.00864854 -0.000915624 0)
(0.0099932 -0.00102688 0)
(0.0113117 -0.00110466 0)
(0.0124171 -0.0010093 0)
(0.0128248 -0.000289837 0)
(0.0116638 0.00243457 0)
(0.00598061 0.0110247 0)
(-2.12807e-05 5.03934e-06 0)
(9.28783e-05 -0.000115164 0)
(0.000447853 -0.000261038 0)
(0.00101868 -0.000403654 0)
(0.0017833 -0.000540912 0)
(0.00271693 -0.000674359 0)
(0.00379916 -0.000806098 0)
(0.0050113 -0.000937766 0)
(0.00633546 -0.00107109 0)
(0.0077531 -0.00120832 0)
(0.00924267 -0.00135117 0)
(0.0107728 -0.00149598 0)
(0.0122852 -0.00161878 0)
(0.013656 -0.00163616 0)
(0.0146219 -0.00130366 0)
(0.0146364 3.43021e-05 0)
(0.0129157 0.00403212 0)
(0.00768927 0.0141584 0)
(-1.40837e-05 -8.87252e-06 0)
(0.000156734 -0.000194265 0)
(0.000606593 -0.000416657 0)
(0.00130746 -0.000635232 0)
(0.00223366 -0.000845945 0)
(0.00335599 -0.0010502 0)
(0.00464851 -0.00125018 0)
(0.00608586 -0.00144714 0)
(0.00764159 -0.00164169 0)
(0.00928555 -0.00183378 0)
(0.0109796 -0.00202009 0)
(0.0126678 -0.0021851 0)
(0.0142569 -0.00227783 0)
(0.0155765 -0.00215748 0)
(0.0163208 -0.00147187 0)
(0.0159688 0.000590414 0)
(0.0139365 0.00575441 0)
(0.00938609 0.016938 0)
(-4.99373e-06 -3.52712e-05 0)
(0.000229893 -0.000303666 0)
(0.000777729 -0.000619734 0)
(0.00160599 -0.000931396 0)
(0.00268517 -0.00123205 0)
(0.0039819 -0.00152244 0)
(0.00546447 -0.00180416 0)
(0.00710019 -0.00207706 0)
(0.00885283 -0.00233905 0)
(0.0106789 -0.00258522 0)
(0.0125217 -0.00280315 0)
(0.0143005 -0.00295959 0)
(0.0158908 -0.00296938 0)
(0.0170926 -0.00263067 0)
(0.017596 -0.00149924 0)
(0.0169687 0.00132337 0)
(0.0148609 0.00748113 0)
(0.0110718 0.0193188 0)
(5.16007e-06 -7.72053e-05 0)
(0.000308552 -0.000448685 0)
(0.000954666 -0.000875951 0)
(0.00190459 -0.00129769 0)
(0.00312444 -0.00170438 0)
(0.00457687 -0.00209549 0)
(0.00622442 -0.00247111 0)
(0.00802672 -0.00282833 0)
(0.0099372 -0.00316033 0)
(0.0118985 -0.00345438 0)
(0.0138358 -0.00368491 0)
(0.0156465 -0.00379619 0)
(0.017184 -0.0036658 0)
(0.0182392 -0.00303623 0)
(0.0185322 -0.00139984 0)
(0.0177509 0.00215947 0)
(0.0157619 0.00911163 0)
(0.0127467 0.0212766 0)
(1.5636e-05 -0.000137404 0)
(0.000388463 -0.000634199 0)
(0.00112948 -0.00119029 0)
(0.00219144 -0.00173846 0)
(0.00353533 -0.00226629 0)
(0.00512005 -0.00277132 0)
(0.00690263 -0.00325105 0)
(0.00883529 -0.00369821 0)
(0.0108615 -0.00409898 0)
(0.0129109 -0.00442983 0)
(0.0148932 -0.00464862 0)
(0.0166899 -0.00467458 0)
(0.0181446 -0.0043497 0)
(0.0190579 -0.00337373 0)
(0.0192039 -0.00120986 0)
(0.0183957 0.00301737 0)
(0.0166701 0.01056 0)
(0.0144045 0.0227922 0)
(2.57553e-05 -0.000217996 0)
(0.000464985 -0.00086411 0)
(0.00129302 -0.00156637 0)
(0.00245262 -0.00225618 0)
(0.003899 -0.0029186 0)
(0.00558757 -0.00354876 0)
(0.00747052 -0.00414039 0)
(0.00949357 -0.00468015 0)
(0.0115916 -0.005145 0)
(0.013684 -0.00549802 0)
(0.0156693 -0.00567837 0)
(0.0174211 -0.00558033 0)
(0.0187852 -0.00501637 0)
(0.019588 -0.00366109 0)
(0.0196677 -0.000981922 0)
(0.018949 0.00381429 0)
(0.0175855 0.0117532 0)
(0.0160288 0.0238497 0)
(3.48816e-05 -0.000320257 0)
(0.000533184 -0.00114054 0)
(0.00143501 -0.0020056 0)
(0.00267235 -0.00285042 0)
(0.00419412 -0.00365859 0)
(0.00595283 -0.00442252 0)
(0.00789697 -0.00513108 0)
(0.00996743 -0.0057633 0)
(0.0120931 -0.00628501 0)
(0.0141867 -0.00664416 0)
(0.0161419 -0.00676063 0)
(0.0178323 -0.00650655 0)
(0.0191172 -0.00567404 0)
(0.0198575 -0.00393151 0)
(0.0199556 -0.000778619 0)
(0.0194239 0.00447104 0)
(0.018484 0.0126303 0)
(0.0175898 0.0244342 0)
(4.19515e-05 -0.000434326 0)
(0.000583634 -0.00143626 0)
(0.0015356 -0.00246446 0)
(0.00282038 -0.00346141 0)
(0.00438114 -0.00441076 0)
(0.0061685 -0.00530254 0)
(0.00812912 -0.00612046 0)
(0.0102017 -0.00683543 0)
(0.0123127 -0.00740194 0)
(0.0143733 -0.00775345 0)
(0.0162783 -0.00779323 0)
(0.017909 -0.00737743 0)
(0.0191433 -0.00628917 0)
(0.0198773 -0.00420685 0)
(0.0200642 -0.000677913 0)
(0.0197726 0.00487786 0)
(0.0192509 0.0131007 0)
(0.0189216 0.0245283 0)
(4.79398e-05 -0.000563583 0)
(0.000620046 -0.00176299 0)
(0.00160212 -0.00296254 0)
(0.00290899 -0.00411631 0)
(0.00447831 -0.00520941 0)
(0.00625986 -0.00622987 0)
(0.00820016 -0.00715602 0)
(0.0102381 -0.00795022 0)
(0.0123009 -0.00855529 0)
(0.0143023 -0.0088907 0)
(0.0161431 -0.00884514 0)
(0.0177173 -0.00826355 0)
(0.0189249 -0.0069282 0)
(0.0196955 -0.00453828 0)
(0.0200236 -0.000698137 0)
(0.0200129 0.00506736 0)
(0.0199148 0.0132489 0)
(0.0201062 0.0242306 0)
(5.29491e-05 -0.000728752 0)
(0.00063925 -0.00217407 0)
(0.00162409 -0.00357795 0)
(0.00291699 -0.00491468 0)
(0.00445074 -0.00617319 0)
(0.00617581 -0.00733998 0)
(0.0080413 -0.0083874 0)
(0.00998979 -0.00926803 0)
(0.0119539 -0.00991176 0)
(0.0138555 -0.0102235 0)
(0.015608 -0.0100788 0)
(0.0171243 -0.00931639 0)
(0.0183315 -0.00772684 0)
(0.0191923 -0.00504338 0)
(0.0197342 -0.000940841 0)
(0.0200794 0.00494412 0)
(0.0204619 0.0129613 0)
(0.021201 0.0233644 0)
(5.51484e-05 -0.000931259 0)
(0.000625389 -0.00267244 0)
(0.00156436 -0.00431161 0)
(0.00278133 -0.0058534 0)
(0.00420747 -0.00729453 0)
(0.00579693 -0.00862135 0)
(0.00750555 -0.00980064 0)
(0.0092849 -0.0107751 0)
(0.0110793 -0.0114617 0)
(0.0128259 -0.011752 0)
(0.0144577 -0.0115121 0)
(0.0159126 -0.0105808 0)
(0.0171461 -0.00876695 0)
(0.0181498 -0.00584868 0)
(0.0189717 -0.00157889 0)
(0.0197338 0.004296 0)
(0.0206363 0.0120009 0)
(0.0219343 0.0216831 0)
(5.19257e-05 -0.00116305 0)
(0.000556361 -0.00323736 0)
(0.00137141 -0.00513087 0)
(0.00241473 -0.00688746 0)
(0.00362319 -0.00851723 0)
(0.0049596 -0.0100093 0)
(0.00639231 -0.0113271 0)
(0.00788856 -0.0124054 0)
(0.00941188 -0.0131507 0)
(0.0109221 -0.0134445 0)
(0.0123786 -0.0131485 0)
(0.0137475 -0.0121085 0)
(0.0150115 -0.0101588 0)
(0.0161835 -0.00712725 0)
(0.017318 -0.00284346 0)
(0.0185201 0.002848 0)
(0.019946 0.0100685 0)
(0.0217864 0.0188817 0)
(4.00544e-05 -0.00139556 0)
(0.000404699 -0.00379908 0)
(0.0009818 -0.00593441 0)
(0.00171009 -0.0078885 0)
(0.00254414 -0.00969055 0)
(0.00346258 -0.0113374 0)
(0.00445265 -0.0127939 0)
(0.00550413 -0.0139916 0)
(0.00660668 -0.0148317 0)
(0.00774929 -0.0151915 0)
(0.00892205 -0.0149333 0)
(0.0101204 -0.0139147 0)
(0.0113514 -0.0119971 0)
(0.0126408 -0.00905443 0)
(0.0140393 -0.00498083 0)
(0.0156254 0.000301318 0)
(0.017506 0.00683425 0)
(0.0198134 0.0146196 0)
(1.59663e-05 -0.00156247 0)
(0.000143631 -0.00419906 0)
(0.000336111 -0.00649744 0)
(0.000568731 -0.00857978 0)
(0.000828591 -0.0104966 0)
(0.00111762 -0.0122581 0)
(0.00144672 -0.0138378 0)
(0.00183231 -0.0151725 0)
(0.00229384 -0.0161656 0)
(0.00285228 -0.0166972 0)
(0.00352989 -0.0166355 0)
(0.00435113 -0.01585 0)
(0.0053447 -0.0142241 0)
(0.00654588 -0.0116645 0)
(0.0079984 -0.00810852 0)
(0.00975567 -0.00352832 0)
(0.0118802 0.00206823 0)
(0.0144535 0.0086384 0)
(-2.39249e-05 -0.00153944 0)
(-0.000230282 -0.00414302 0)
(-0.000565592 -0.00640504 0)
(-0.00100433 -0.00845211 0)
(-0.00151642 -0.0103479 0)
(-0.00207406 -0.012119 0)
(-0.002644 -0.0137558 0)
(-0.00318602 -0.0152104 0)
(-0.0036541 -0.0164003 0)
(-0.00399835 -0.0172177 0)
(-0.00416689 -0.0175424 0)
(-0.00410776 -0.017256 0)
(-0.00377041 -0.016255 0)
(-0.00310706 -0.0144613 0)
(-0.00207391 -0.0118287 0)
(-0.000631259 -0.00834585 0)
(0.00125774 -0.00403534 0)
(0.00363833 0.00105149 0)
(-5.43757e-05 -0.00126368 0)
(-0.00053253 -0.00347468 0)
(-0.0013008 -0.00543554 0)
(-0.00229589 -0.00722959 0)
(-0.00345938 -0.00891087 0)
(-0.00475096 -0.0105137 0)
(-0.0061291 -0.0120444 0)
(-0.0075451 -0.0134752 0)
(-0.00894216 -0.0147447 0)
(-0.0102563 -0.0157656 0)
(-0.0114184 -0.0164354 0)
(-0.0123572 -0.0166496 0)
(-0.013003 -0.0163136 0)
(-0.013291 -0.0153529 0)
(-0.0131653 -0.0137199 0)
(-0.01258 -0.0113975 0)
(-0.0114979 -0.00839877 0)
(-0.00988016 -0.00476472 0)
(-6.53266e-05 -0.000935854 0)
(-0.000668361 -0.00268591 0)
(-0.00164747 -0.00429151 0)
(-0.00292437 -0.00577849 0)
(-0.0044314 -0.00718331 0)
(-0.00612681 -0.00854091 0)
(-0.00797068 -0.00986755 0)
(-0.00991727 -0.0111513 0)
(-0.0119123 -0.0123508 0)
(-0.0138923 -0.0133998 0)
(-0.0157856 -0.014216 0)
(-0.0175149 -0.0147119 0)
(-0.0190017 -0.0148047 0)
(-0.0201705 -0.014426 0)
(-0.0209534 -0.0135271 0)
(-0.021294 -0.0120838 0)
(-0.021146 -0.0100966 0)
(-0.0204668 -0.00759044 0)
(-6.16088e-05 -0.000619066 0)
(-0.000677286 -0.00191424 0)
(-0.00170247 -0.00315838 0)
(-0.00305953 -0.00432371 0)
(-0.00468275 -0.00542934 0)
(-0.0065335 -0.00650723 0)
(-0.00857736 -0.00757877 0)
(-0.0107766 -0.00864356 0)
(-0.0130861 -0.00967666 0)
(-0.0154509 -0.0106315 0)
(-0.0178059 -0.0114464 0)
(-0.0200774 -0.0120526 0)
(-0.022187 -0.0123824 0)
(-0.0240555 -0.0123762 0)
(-0.0256087 -0.0119888 0)
(-0.0267813 -0.0111917 0)
(-0.0275179 -0.00997585 0)
(-0.027769 -0.00835193 0)
(-4.77521e-05 -0.000361572 0)
(-0.000595929 -0.00126753 0)
(-0.001549 -0.00218634 0)
(-0.00283913 -0.00305361 0)
(-0.00440773 -0.00387616 0)
(-0.00621999 -0.00468139 0)
(-0.00824739 -0.00549163 0)
(-0.0104613 -0.00631307 0)
(-0.0128277 -0.00713269 0)
(-0.0153038 -0.00791995 0)
(-0.0178359 -0.00863141 0)
(-0.0203601 -0.00921643 0)
(-0.0228048 -0.00962324 0)
(-0.0250948 -0.00980436 0)
(-0.027156 -0.00972095 0)
(-0.0289197 -0.00934567 0)
(-0.0303254 -0.00866432 0)
(-0.031319 -0.00767782 0)
(-2.86307e-05 -0.0001783 0)
(-0.000465283 -0.000780282 0)
(-0.00127841 -0.00142727 0)
(-0.00241301 -0.00203933 0)
(-0.00381835 -0.00261703 0)
(-0.00546266 -0.00318274 0)
(-0.00732242 -0.00375677 0)
(-0.00937707 -0.00434785 0)
(-0.0116033 -0.00495044 0)
(-0.0139704 -0.00554582 0)
(-0.0164376 -0.00610519 0)
(-0.0189532 -0.00659358 0)
(-0.021457 -0.00697405 0)
(-0.0238827 -0.00721146 0)
(-0.0261618 -0.00727561 0)
(-0.0282284 -0.0071434 0)
(-0.030022 -0.00680015 0)
(-0.0314884 -0.00624144 0)
(-8.4609e-06 -6.41166e-05 0)
(-0.000320208 -0.000443599 0)
(-0.000966807 -0.000874992 0)
(-0.00190472 -0.00128139 0)
(-0.00308987 -0.00166165 0)
(-0.00449281 -0.00203308 0)
(-0.00609413 -0.00241221 0)
(-0.00787981 -0.00280751 0)
(-0.00983532 -0.00321752 0)
(-0.0119405 -0.00363153 0)
(-0.0141665 -0.0040316 0)
(-0.0164744 -0.00439516 0)
(-0.0188164 -0.00469767 0)
(-0.0211375 -0.0049151 0)
(-0.0233793 -0.00502598 0)
(-0.0254825 -0.00501296 0)
(-0.0273917 -0.00486363 0)
(-0.0290566 -0.00457173 0)
(9.47425e-06 -4.49015e-06 0)
(-0.000186022 -0.000229017 0)
(-0.000667577 -0.000496753 0)
(-0.00139989 -0.000746303 0)
(-0.0023443 -0.000977062 0)
(-0.00347382 -0.00120149 0)
(-0.00477261 -0.00143157 0)
(-0.00623172 -0.00167403 0)
(-0.00784322 -0.00192918 0)
(-0.00959531 -0.00219134 0)
(-0.011469 -0.00245019 0)
(-0.0134368 -0.00269227 0)
(-0.015463 -0.00290259 0)
(-0.0175048 -0.00306613 0)
(-0.0195151 -0.00316907 0)
(-0.0214448 -0.00319976 0)
(-0.023246 -0.00314927 0)
(-0.0248759 -0.00301173 0)
(2.26566e-05 1.76145e-05 0)
(-7.88056e-05 -0.000103609 0)
(-0.000412686 -0.000252954 0)
(-0.000949084 -0.000389887 0)
(-0.0016546 -0.000514732 0)
(-0.00250565 -0.000635486 0)
(-0.00348991 -0.000759737 0)
(-0.00460216 -0.000891938 0)
(-0.00583905 -0.00103282 0)
(-0.00719474 -0.00117971 0)
(-0.00865793 -0.00132726 0)
(-0.0102105 -0.0014683 0)
(-0.0118276 -0.00159468 0)
(-0.013478 -0.00169805 0)
(-0.0151265 -0.00177056 0)
(-0.016735 -0.00180539 0)
(-0.0182657 -0.00179706 0)
(-0.0196846 -0.00174127 0)
(2.89868e-05 1.8131e-05 0)
(-7.17189e-06 -3.78794e-05 0)
(-0.000217314 -0.000107545 0)
(-0.000576087 -0.000170054 0)
(-0.00105652 -0.00022611 0)
(-0.00163995 -0.000279986 0)
(-0.00231759 -0.000335617 0)
(-0.00308688 -0.00039536 0)
(-0.00394723 -0.000459777 0)
(-0.00489661 -0.000527823 0)
(-0.00592921 -0.000597183 0)
(-0.0070343 -0.000664664 0)
(-0.00819601 -0.00072658 0)
(-0.00939387 -0.000779093 0)
(-0.0106038 -0.000818512 0)
(-0.0117993 -0.000841547 0)
(-0.012953 -0.000845481 0)
(-0.0140411 -0.000827713 0)
(2.64559e-05 1.03392e-05 0)
(2.57347e-05 -8.84917e-06 0)
(-8.50307e-05 -3.18078e-05 0)
(-0.000286773 -5.18015e-05 0)
(-0.000561177 -6.93348e-05 0)
(-0.00089601 -8.60472e-05 0)
(-0.00128608 -0.000103376 0)
(-0.00173051 -0.000122186 0)
(-0.00222994 -0.000142733 0)
(-0.0027843 -0.000164736 0)
(-0.00339131 -0.000187493 0)
(-0.00404575 -0.000210009 0)
(-0.0047392 -0.000231114 0)
(-0.00546033 -0.000249574 0)
(-0.00619545 -0.000264177 0)
(-0.00692913 -0.000273809 0)
(-0.00764502 -0.000277503 0)
(-0.00832875 -0.000274015 0)
(1.32571e-05 2.7738e-06 0)
(2.06049e-05 -1.09667e-07 0)
(-1.20824e-05 -1.99826e-06 0)
(-7.63253e-05 -3.52141e-06 0)
(-0.000165034 -4.77009e-06 0)
(-0.000273666 -5.9386e-06 0)
(-0.000400499 -7.16467e-06 0)
(-0.000545487 -8.5309e-06 0)
(-0.000709203 -1.00665e-05 0)
(-0.000892029 -1.17569e-05 0)
(-0.00109362 -1.35532e-05 0)
(-0.0013126 -1.53832e-05 0)
(-0.00154649 -1.71589e-05 0)
(-0.00179178 -1.87855e-05 0)
(-0.00204408 -2.01676e-05 0)
(-0.0022983 -2.12186e-05 0)
(-0.00254883 -2.1812e-05 0)
(-0.00279075 -2.17434e-05 0)
(2.8745e-05 -6.6029e-05 1.73863e-23)
(0.000223803 -0.000165211 -2.28969e-23)
(0.000551091 -0.000228781 0)
(0.000961756 -0.000259071 0)
(0.00139283 -0.000264645 0)
(0.00179832 -0.000252748 1.95024e-23)
(0.00214586 -0.000229412 0)
(0.00241262 -0.000199529 0)
(0.00258313 -0.000166754 0)
(0.00264754 -0.00013356 0)
(0.00260019 -0.000101404 -1.67276e-24)
(0.00243815 -7.10015e-05 0)
(0.00215983 -4.24607e-05 0)
(0.00176418 -1.54331e-05 0)
(0.00125002 1.07189e-05 0)
(0.00061552 3.67833e-05 2.74212e-23)
(-0.000141974 6.36006e-05 0)
(-0.00102599 9.19923e-05 0)
(-0.00204072 0.000122704 0)
(-0.00319067 0.000156347 0)
(-0.00448025 0.000193357 0)
(-0.00591331 0.000233967 0)
(-0.00749256 0.000278208 0)
(-0.0092191 0.000325905 9.03775e-23)
(-0.0110918 0.000376675 -9.86981e-23)
(-0.0131071 0.000429932 1.06792e-22)
(-0.0152582 0.000484894 1.14512e-22)
(-0.017535 0.000540586 0)
(-0.0199239 0.000595851 0)
(-0.0224076 0.00064937 -1.33699e-22)
(-0.0249648 0.000699681 -1.38134e-22)
(-0.0275707 0.00074522 0)
(-0.0301968 0.000784358 0)
(-0.0328117 0.000815458 -1.42731e-22)
(-0.035381 0.000836935 0)
(-0.0378682 0.000847327 0)
(-0.0402356 0.000845359 1.30313e-22)
(-0.0424445 0.000830019 0)
(-0.0444563 0.000800617 1.10644e-22)
(-0.0462336 0.000756841 1.94314e-22)
(-0.0477407 0.000698786 0)
(-0.0489445 0.000626926 0)
(-0.0498155 0.000542065 0)
(-0.0503283 0.000445377 0)
(-0.0504613 0.000338775 0)
(-0.0501978 0.000224093 -6.41063e-23)
(-0.0495275 0.00010296 -1.20253e-22)
(-0.0484461 -2.21257e-05 -1.78721e-22)
(-0.0469537 -0.000148751 0)
(-0.045056 -0.000274678 2.99783e-22)
(-0.0427633 -0.000397817 0)
(-0.0400904 -0.000516278 -4.2108e-22)
(-0.0370557 -0.000628403 -4.797e-22)
(-0.0336811 -0.000732792 0)
(-0.0299912 -0.000828282 0)
(-0.0260127 -0.000913924 0)
(-0.0217749 -0.000988921 -6.80053e-22)
(-0.0173086 -0.00105257 0)
(-0.0126468 -0.00110418 0)
(-0.00782492 -0.00114291 0)
(-0.00288183 -0.00116733 0)
(0.00214107 -0.00117553 0)
(0.00720154 -0.00116651 0)
(0.0122505 -0.00114034 0)
(0.0172338 -0.00109678 0)
(0.0220942 -0.00103538 6.72642e-22)
(0.0267706 -0.000955898 0)
(0.0311988 -0.000858544 0)
(0.0353124 -0.000744133 -5.06459e-22)
(0.0390448 -0.0006142 -4.39656e-22)
(0.0423307 -0.000471066 0)
(0.0451089 -0.000317854 2.95683e-22)
(0.047325 -0.00015842 -2.2111e-22)
(0.048934 2.72208e-06 0)
(0.0499034 0.000160239 7.36396e-23)
(0.0502131 0.000308382 0)
(0.0498629 0.000445101 0)
(0.0488726 0.000563721 1.23358e-22)
(0.0472771 0.000660675 0)
(0.0451302 0.000733613 -2.25644e-22)
(0.0425023 0.000781154 0)
(0.0394778 0.000803174 2.98767e-22)
(0.0361517 0.000800891 3.24037e-22)
(0.0326249 0.000776742 3.421e-22)
(0.0289993 0.000734149 7.06958e-22)
(0.025373 0.000677204 -7.17749e-22)
(0.0218354 0.000610314 0)
(0.0184633 0.000537847 0)
(0.0153181 0.0004638 0)
(0.0124441 0.000391547 -6.75643e-22)
(0.00986892 0.000323657 -6.52474e-22)
(0.00760462 0.000261825 6.27252e-22)
(0.00565009 0.000206899 0)
(0.003994 0.000159024 -5.74894e-22)
(0.00261766 0.00011787 -5.49315e-22)
(0.00149734 8.29158e-05 -5.24861e-22)
(0.000605804 5.36893e-05 0)
(-8.68936e-05 2.99197e-05 0)
(-0.000612946 1.15476e-05 0)
(-0.00100607 -1.4255e-06 -4.43284e-22)
(-0.00130032 -9.14757e-06 0)
(-0.00152827 -1.20589e-05 0)
(-0.00171907 -1.09259e-05 4.03882e-22)
(-0.00189668 -6.76187e-06 0)
(-0.00207878 -6.85259e-07 0)
(-0.00227656 6.24106e-06 3.80539e-22)
(-0.00249527 1.3129e-05 0)
(-0.00273521 1.93231e-05 0)
(-0.00299309 2.44022e-05 -3.66013e-22)
(-0.00326322 2.81455e-05 -3.61923e-22)
(-0.00353863 3.04854e-05 0)
(-0.00381191 3.14616e-05 3.53728e-22)
(-0.00407587 3.11851e-05 0)
(-0.00432398 2.98115e-05 -3.44718e-22)
(-0.00455064 2.75227e-05 0)
(-0.00475141 2.45145e-05 -3.34394e-22)
(-0.00492303 2.09853e-05 -3.28703e-22)
(-0.00506348 1.71287e-05 0)
(-0.00517191 1.3125e-05 0)
(-0.00524852 9.13022e-06 0)
(-0.00529447 5.2493e-06 0)
(-0.00531181 1.58922e-06 0)
(-0.00530293 -1.46041e-06 0)
(-0.00527068 -4.22256e-06 0)
(-0.00521842 -6.58999e-06 -2.75797e-22)
(-0.00514943 -8.51194e-06 2.69134e-22)
(-0.00506694 -9.99799e-06 0)
(-0.00497411 -1.10748e-05 0)
(-0.00487386 -1.17786e-05 0)
(-0.00476883 -1.21524e-05 0)
(-0.00466137 -1.22425e-05 4.77679e-22)
(-0.0045535 -1.20958e-05 0)
(-0.00444693 -1.17578e-05 -4.56875e-22)
(-0.00434303 -1.12708e-05 4.47223e-22)
(-0.00424291 -1.06732e-05 0)
(-0.00414741 -9.99869e-06 0)
(-0.00405713 -9.27612e-06 0)
(-0.00397247 -8.52963e-06 -4.1309e-22)
(-0.00389366 -7.77888e-06 -4.05525e-22)
(-0.00382078 -7.03945e-06 0)
(-0.00375381 -6.32329e-06 -3.91323e-22)
(-0.00369263 -5.63921e-06 -3.84621e-22)
(-0.00363702 -4.99341e-06 3.78143e-22)
(-0.00358677 -4.38988e-06 0)
(-0.00354156 -3.83088e-06 0)
(-0.0035011 -3.31727e-06 3.59781e-22)
(-0.00346506 -2.84883e-06 0)
(-0.00343309 -2.42453e-06 0)
(-0.00340488 -2.04273e-06 0)
(-0.00338009 -1.70135e-06 0)
(-0.0033584 -1.398e-06 -3.31399e-22)
(-0.00333951 -1.13009e-06 -3.25901e-22)
(-0.00332312 -8.94916e-07 0)
(-0.00330896 -6.89746e-07 -3.14989e-22)
(-0.00329677 -5.11826e-07 0)
(-0.00328631 -3.58448e-07 0)
(-0.00327737 -2.26936e-07 -2.98715e-22)
(-0.00326975 -1.14641e-07 0)
(-0.00326327 -1.88562e-08 -2.87864e-22)
(-0.00325777 6.32922e-08 0)
(-0.00325314 1.34912e-07 0)
(-0.00324929 1.99576e-07 -2.71526e-22)
(-0.00324615 2.62275e-07 0)
(-0.00324374 3.29321e-07 -2.60568e-22)
(-0.00324213 4.08092e-07 0)
(-0.00324147 5.06022e-07 0)
(-0.00324198 6.28024e-07 0)
(-0.00324392 7.69923e-07 2.3836e-22)
(-0.00324756 9.08395e-07 0)
(-0.00325305 1.04833e-06 -2.26937e-22)
(-0.00326018 1.25093e-06 0)
(-0.00326823 1.38522e-06 0)
(-0.00327577 1.37293e-06 0)
(-0.00328024 1.24817e-06 0)
(-0.00327787 6.77076e-07 0)
(-0.00326337 -3.85903e-07 0)
(-0.00322815 -2.42657e-06 0)
(-0.00316173 -6.72279e-06 3.49035e-22)
(-0.00306343 -7.56849e-06 0)
(-0.00271565 -5.52499e-05 0)
(5.32718e-05 -0.000444415 -5.76654e-23)
(0.000412534 -0.00106413 7.6764e-23)
(0.000944027 -0.00142942 0)
(0.00155706 -0.00156976 -5.12117e-23)
(0.00214636 -0.00152726 0)
(0.00263266 -0.00134507 -2.08298e-23)
(0.00295655 -0.00106175 3.98986e-23)
(0.00307273 -0.000709407 3.39114e-23)
(0.00294703 -0.000313248 0)
(0.00255429 0.000108127 1.89826e-23)
(0.00187625 0.00054214 1.79681e-24)
(0.000899403 0.000980868 0)
(-0.000386381 0.00142032 0)
(-0.00198945 0.00185944 0)
(-0.00391714 0.00229912 0)
(-0.00617636 0.0027413 -2.91901e-23)
(-0.00877373 0.00318821 0)
(-0.0117153 0.00364164 7.36885e-23)
(-0.015006 0.00410246 0)
(-0.0186488 0.00457017 0)
(-0.022644 0.00504269 -1.19458e-22)
(-0.0269878 0.00551621 0)
(-0.0316714 0.00598523 1.51947e-22)
(-0.0366798 0.00644268 -9.30589e-23)
(-0.0419912 0.00688009 1.01113e-22)
(-0.0475764 0.00728783 -1.0884e-22)
(-0.053398 0.00765548 -1.16101e-22)
(-0.0594107 0.00797208 0)
(-0.0655612 0.00822656 0)
(-0.0717888 0.00840808 1.3351e-22)
(-0.0780262 0.00850648 -1.25806e-22)
(-0.0842002 0.00851263 0)
(-0.0902336 0.00841883 0)
(-0.0960461 0.00821917 1.40191e-22)
(-0.101556 0.00790981 0)
(-0.106683 0.0074892 0)
(-0.111347 0.00695826 -1.27052e-22)
(-0.115473 0.00632039 0)
(-0.118992 0.0055815 1.13256e-22)
(-0.121839 0.00474979 -1.89105e-22)
(-0.12396 0.00383549 0)
(-0.125308 0.00285042 0)
(-0.125845 0.00180769 -1.91794e-22)
(-0.125542 0.000722009 -1.05838e-22)
(-0.124384 -0.000391026 -1.13403e-23)
(-0.122365 -0.0015157 -2.7737e-23)
(-0.119488 -0.00263648 1.18585e-22)
(-0.115764 -0.0037387 4.9099e-22)
(-0.111215 -0.00480898 -4.33191e-22)
(-0.105867 -0.00583544 -2.99337e-22)
(-0.0997569 -0.0068078 0)
(-0.0929224 -0.0077175 4.25199e-22)
(-0.0854079 -0.00855761 -4.40092e-22)
(-0.077261 -0.00932276 0)
(-0.0685318 -0.0100089 0)
(-0.0592728 -0.0106128 0)
(-0.0495383 -0.0111321 7.13041e-22)
(-0.0393845 -0.0115642 0)
(-0.0288697 -0.0119065 -1.54285e-21)
(-0.0180553 -0.0121553 0)
(-0.00700725 -0.0123057 -1.65548e-21)
(0.00420266 -0.0123517 0)
(0.0155021 -0.0122864 1.61324e-21)
(0.0268058 -0.0121033 0)
(0.0380207 -0.0117961 -1.4659e-21)
(0.0490466 -0.0113584 6.58571e-22)
(0.0597749 -0.0107849 0)
(0.0700882 -0.0100723 1.13344e-21)
(0.0798619 -0.00921999 5.2318e-22)
(0.0889657 -0.00823124 4.51566e-22)
(0.0972659 -0.00711383 0)
(0.104629 -0.00588061 2.60557e-22)
(0.110925 -0.00454987 2.24284e-22)
(0.116033 -0.00314541 0)
(0.119846 -0.00169648 -7.44144e-23)
(0.122276 -0.000237554 -2.10322e-23)
(0.12326 0.0011946 0)
(0.122765 0.00255942 -1.24458e-22)
(0.120801 0.00381812 0)
(0.117415 0.0049352 6.92853e-22)
(0.112697 0.00587919 0)
(0.106778 0.00662509 -9.09348e-22)
(0.0998293 0.00715644 -3.31231e-22)
(0.0920541 0.00746696 3.39092e-22)
(0.0836814 0.00756125 6.97724e-22)
(0.0749528 0.00745449 -7.0719e-22)
(0.0661105 0.00717121 0)
(0.0573839 0.00674305 0)
(0.0489772 0.00620592 0)
(0.04106 0.00559682 2.13506e-21)
(0.0337614 0.00495076 7.10058e-22)
(0.0271683 0.00429831 -6.87887e-22)
(0.0213267 0.00366402 0)
(0.0162472 0.003066 -5.9967e-22)
(0.0119108 0.00251663 6.14147e-22)
(0.00827531 0.00202396 5.89767e-22)
(0.00528113 0.0015933 0)
(0.00285522 0.00122831 0)
(0.000914882 0.000931193 0)
(-0.000628455 0.000702152 5.05418e-22)
(-0.00186492 0.000538502 0)
(-0.00288077 0.00043411 -9.34809e-22)
(-0.00375327 0.000379683 -1.37084e-21)
(-0.0045464 0.00036375 8.90481e-22)
(-0.00530835 0.000374074 0)
(-0.00607099 0.000399088 4.2596e-22)
(-0.00685114 0.000428968 0)
(-0.00765312 0.000456203 8.36467e-22)
(-0.00847182 0.000475673 -4.10324e-22)
(-0.0092958 0.000484405 -4.06e-22)
(-0.01011 0.000481162 0)
(-0.0108982 0.000466006 -1.20251e-21)
(-0.0116441 0.000439911 7.90643e-22)
(-0.0123334 0.000404443 3.9231e-22)
(-0.0129538 0.000361518 0)
(-0.013496 0.000313207 3.80747e-22)
(-0.0139537 0.000261595 1.12096e-21)
(-0.0143235 0.000208666 0)
(-0.0146049 0.000156214 7.2021e-22)
(-0.0147999 0.000105782 7.06178e-22)
(-0.0149129 5.86082e-05 6.91728e-22)
(-0.0149497 1.56602e-05 0)
(-0.0149178 -2.21038e-05 0)
(-0.0148253 -5.4686e-05 0)
(-0.0146808 -8.18775e-05 -3.16481e-22)
(-0.0144931 -0.000103727 -3.08335e-22)
(-0.0142708 -0.000120485 0)
(-0.0140221 -0.000132534 -5.89456e-22)
(-0.0137544 -0.000140343 -5.76058e-22)
(-0.0134746 -0.000144433 0)
(-0.0131887 -0.000145341 -5.49608e-22)
(-0.0129019 -0.000143602 -1.07803e-21)
(-0.0126185 -0.000139721 5.26602e-22)
(-0.012342 -0.000134168 5.18151e-22)
(-0.0120753 -0.000127363 0)
(-0.0118206 -0.000119677 0)
(-0.0115794 -0.000111425 0)
(-0.0113528 -0.000102874 4.78178e-22)
(-0.0111414 -9.42414e-05 -4.71384e-22)
(-0.0109454 -8.57013e-05 -9.25011e-22)
(-0.0107649 -7.73894e-05 4.54078e-22)
(-0.0105995 -6.94079e-05 -4.47828e-22)
(-0.0104487 -6.18306e-05 -4.39463e-22)
(-0.0103121 -5.47078e-05 0)
(-0.0101888 -4.80702e-05 0)
(-0.010078 -4.19333e-05 4.19787e-22)
(-0.00997899 -3.62998e-05 0)
(-0.00989086 -3.11631e-05 0)
(-0.00981276 -2.65094e-05 -8.00103e-22)
(-0.00974384 -2.23189e-05 0)
(-0.00968328 -1.85684e-05 -3.87698e-22)
(-0.00963027 -1.52314e-05 3.81185e-22)
(-0.00958404 -1.22801e-05 0)
(-0.00954389 -9.68512e-06 -3.69112e-22)
(-0.00950911 -7.417e-06 0)
(-0.0094791 -5.44597e-06 0)
(-0.00945325 -3.74232e-06 3.50548e-22)
(-0.00943104 -2.27616e-06 -6.88886e-22)
(-0.00941201 -1.01681e-06 3.38255e-22)
(-0.00939572 6.84374e-08 0)
(-0.00938184 1.01617e-06 0)
(-0.00937012 1.86934e-06 -3.19671e-22)
(-0.00936038 2.6807e-06 0)
(-0.00935262 3.51392e-06 -3.07138e-22)
(-0.00934695 4.44134e-06 0)
(-0.0093437 5.53493e-06 0)
(-0.00934332 6.84636e-06 0)
(-0.00934635 8.37238e-06 -2.81712e-22)
(-0.00935319 1.00077e-05 0)
(-0.00936383 1.1549e-05 2.68555e-22)
(-0.00937742 1.26916e-05 0)
(-0.00939168 1.27341e-05 0)
(-0.00940224 1.08215e-05 -4.95233e-22)
(-0.00940207 6.03065e-06 4.80431e-22)
(-0.00938094 -3.15912e-06 0)
(-0.00932458 -1.8339e-05 0)
(-0.00921209 -4.23349e-05 0)
(-0.00901998 -7.98939e-05 -1.24841e-21)
(-0.0087334 -0.000142307 0)
(-0.00804439 -0.000290079 7.61605e-22)
(4.98847e-05 -0.000904019 -8.1358e-24)
(0.000356764 -0.00204024 -1.1445e-22)
(0.000751178 -0.002607 0)
(0.00112926 -0.00270506 1.10828e-22)
(0.00138003 -0.00242956 0)
(0.00142013 -0.00186612 0)
(0.00118552 -0.0010883 7.82095e-24)
(0.000625074 -0.00015697 -3.40413e-23)
(-0.000302246 0.00087998 -3.53564e-23)
(-0.00162946 0.00198629 -1.89705e-23)
(-0.00338317 0.00313579 0)
(-0.00558492 0.004311 0)
(-0.00825231 0.00550125 8.24275e-25)
(-0.0113998 0.00670086 -1.90727e-23)
(-0.0150388 0.00790732 4.11543e-23)
(-0.0191783 0.00911958 0)
(-0.0238234 0.0103365 8.94536e-23)
(-0.0289758 0.0115554 -7.11922e-23)
(-0.0346317 0.0127712 0)
(-0.0407814 0.0139755 1.72126e-22)
(-0.0474076 0.0151563 1.13945e-22)
(-0.0544844 0.0162981 -2.33197e-22)
(-0.0619765 0.0173819 -1.4368e-22)
(-0.069838 0.0183861 0)
(-0.0780127 0.0192868 3.29619e-22)
(-0.0864336 0.0200593 3.61635e-22)
(-0.0950241 0.0206784 0)
(-0.103698 0.0211199 4.22551e-22)
(-0.112363 0.0213615 0)
(-0.12092 0.0213834 4.75241e-22)
(-0.129264 0.0211699 2.42473e-22)
(-0.137293 0.020709 0)
(-0.144901 0.0199942 0)
(-0.151986 0.0190237 0)
(-0.158452 0.0178013 0)
(-0.164209 0.0163362 0)
(-0.169173 0.0146425 0)
(-0.173271 0.0127391 4.89873e-22)
(-0.176441 0.010649 -6.62419e-22)
(-0.178632 0.00839855 0)
(-0.179803 0.00601663 0)
(-0.179926 0.003534 0)
(-0.178984 0.000983042 -5.94068e-23)
(-0.176972 -0.00160292 9.87521e-23)
(-0.173899 -0.00419095 8.21063e-23)
(-0.169778 -0.00675016 1.08586e-22)
(-0.164636 -0.0092522 1.25728e-22)
(-0.158502 -0.0116716 -2.94762e-22)
(-0.151416 -0.0139858 6.0918e-23)
(-0.143422 -0.0161758 -4.62691e-22)
(-0.13457 -0.0182258 0)
(-0.124912 -0.0201233 -7.00873e-22)
(-0.114502 -0.0218594 6.03204e-23)
(-0.103398 -0.0234274 0)
(-0.0916586 -0.0248233 0)
(-0.0793408 -0.0260444 1.15697e-21)
(-0.0665041 -0.0270885 0)
(-0.0532078 -0.0279536 0)
(-0.0395122 -0.0286364 -1.36486e-21)
(-0.0254797 -0.029132 -2.99099e-21)
(-0.011177 -0.0294331 1.61344e-21)
(0.0033241 -0.0295298 0)
(0.0179532 -0.0294087 -1.57584e-21)
(0.0326256 -0.0290546 0)
(0.0472456 -0.0284513 -1.29754e-21)
(0.0617094 -0.0275834 -1.32012e-21)
(0.075903 -0.0264361 2.29888e-21)
(0.0897008 -0.0249975 9.70045e-22)
(0.102967 -0.0232603 0)
(0.115554 -0.0212229 -1.52182e-21)
(0.127309 -0.0188916 0)
(0.138071 -0.0162817 -1.48461e-21)
(0.147677 -0.0134187 -6.66329e-22)
(0.155964 -0.0103391 -3.85128e-22)
(0.162774 -0.00709044 1.13537e-22)
(0.167962 -0.00373179 1.6396e-22)
(0.171401 -0.000334465 0)
(0.17298 0.00301908 0)
(0.172626 0.00624093 -7.86634e-22)
(0.170313 0.00924197 -1.38007e-21)
(0.166066 0.0119361 0)
(0.159962 0.0142441 5.62277e-22)
(0.152141 0.016099 0)
(0.142803 0.0174522 -1.95664e-21)
(0.132204 0.0182784 1.96167e-23)
(0.120648 0.0185786 -6.74063e-24)
(0.108468 0.0183813 1.36281e-21)
(0.0960143 0.0177399 0)
(0.083626 0.0167285 -1.32977e-21)
(0.0716148 0.0154339 -3.04963e-23)
(0.0602453 0.013948 0)
(0.0497238 0.012359 0)
(0.0401925 0.0107452 0)
(0.0317306 0.00917088 1.2023e-21)
(0.02436 0.0076855 0)
(0.0180543 0.00632539 0)
(0.0127482 0.00511641 0)
(0.0083462 0.00407623 0)
(0.00473126 0.00321526 0)
(0.00177301 0.00253606 9.73402e-22)