/*--------------------------------*- C++ -*----------------------------------*\
  =========                 |
  \\      /  F ield         | OpenFOAM: The Open Source CFD Toolbox
   \\    /   O peration     | Website:  https://openfoam.org
    \\  /    A nd           | Version:  8
     \\/     M anipulation  |
\*---------------------------------------------------------------------------*/
FoamFile
{
    version     2.0;
    format      ascii;
    class       volScalarField;
    location    "0.1";
    object      p;
}
// * * * * * * * * * * * * * * * * * * * * * * * * * * * * * * * * * * * * * //

dimensions      [0 2 -2 0 0 0 0];

internalField   nonuniform List<scalar> 
12225
(
2.2656
1.88278
1.83733
1.82381
1.79855
1.7746
1.75246
1.73083
1.70932
1.68772
1.66576
1.64313
1.61946
1.59423
1.56668
1.5353
1.49778
1.44048
2.204
1.89116
1.84101
1.82567
1.79963
1.77521
1.75285
1.73105
1.7094
1.68767
1.66558
1.64281
1.61897
1.59354
1.56573
1.53411
1.49648
1.44572
2.14444
1.90352
1.84593
1.82781
1.80108
1.77605
1.75341
1.73143
1.70962
1.68776
1.66555
1.64267
1.61872
1.59319
1.56535
1.534
1.49785
1.45513
2.0989
1.91618
1.85129
1.82979
1.8028
1.77716
1.7542
1.73205
1.71012
1.68817
1.66591
1.64302
1.61913
1.59379
1.56641
1.53623
1.50305
1.46771
2.06273
1.92559
1.85697
1.83189
1.80493
1.77876
1.75538
1.73307
1.71105
1.68906
1.66684
1.64408
1.62045
1.59561
1.56919
1.54091
1.51135
1.48235
2.03264
1.93062
1.86254
1.83424
1.80748
1.78096
1.75715
1.73467
1.7126
1.69064
1.66855
1.64606
1.62291
1.59888
1.57383
1.54788
1.52203
1.4983
2.00761
1.93183
1.86743
1.83674
1.81031
1.78376
1.75958
1.73696
1.7149
1.69305
1.67121
1.64914
1.62669
1.60373
1.58035
1.5569
1.53453
1.51503
1.98704
1.93024
1.87127
1.8392
1.81321
1.78698
1.76263
1.73996
1.718
1.69637
1.6749
1.65342
1.63184
1.61016
1.58859
1.56762
1.54834
1.53214
1.97029
1.92682
1.8739
1.84147
1.816
1.79039
1.76613
1.74355
1.72183
1.70055
1.67958
1.65883
1.63827
1.61798
1.59825
1.5796
1.56292
1.54925
1.95672
1.9224
1.87539
1.84346
1.81858
1.79378
1.76989
1.74756
1.72622
1.70543
1.6851
1.66519
1.64575
1.62689
1.60892
1.59232
1.57779
1.56602
1.94576
1.91765
1.87595
1.84516
1.82093
1.79703
1.77372
1.75182
1.73097
1.7108
1.69121
1.67224
1.65394
1.63649
1.62014
1.60531
1.59249
1.58215
1.93768
1.91337
1.87582
1.84644
1.82292
1.79989
1.77724
1.75584
1.73554
1.71601
1.69717
1.67908
1.66184
1.64558
1.63056
1.6171
1.60553
1.59617
1.93112
1.90945
1.87544
1.84751
1.82474
1.80259
1.78067
1.75984
1.74012
1.72127
1.70321
1.68601
1.66976
1.65462
1.64077
1.62846
1.6179
1.60931
1.92524
1.90565
1.87486
1.84855
1.82672
1.80557
1.78453
1.7644
1.74539
1.72734
1.71017
1.69394
1.67877
1.66476
1.65206
1.64083
1.63119
1.62326
1.92038
1.90238
1.87428
1.84968
1.82895
1.80888
1.78883
1.76954
1.75137
1.73422
1.71802
1.70282
1.68873
1.67583
1.66421
1.65395
1.64511
1.63772
1.91696
1.90011
1.87411
1.85112
1.83158
1.81263
1.79364
1.7753
1.75805
1.74186
1.72667
1.71251
1.69947
1.6876
1.67694
1.66752
1.65933
1.65238
1.91552
1.89944
1.87493
1.85328
1.83486
1.81699
1.79904
1.78168
1.76538
1.75016
1.73597
1.72281
1.71074
1.69978
1.68994
1.6812
1.67355
1.66693
1.91678
1.90116
1.87751
1.85673
1.83916
1.82217
1.80512
1.78865
1.77324
1.75893
1.74564
1.73338
1.72215
1.71196
1.70279
1.69461
1.68736
1.68099
1.92192
1.90637
1.88281
1.86218
1.8449
1.82839
1.81193
1.79612
1.78142
1.76785
1.75532
1.74378
1.73324
1.72366
1.71502
1.70724
1.70029
1.69409
1.93089
1.91474
1.89
1.86838
1.8506
1.83393
1.81751
1.80191
1.78755
1.7744
1.76232
1.75125
1.74115
1.73198
1.72369
1.7162
1.70946
1.7034
1.94116
1.92388
1.89695
1.87356
1.8549
1.8378
1.82116
1.80553
1.79133
1.77843
1.76665
1.75587
1.74607
1.73718
1.72912
1.72183
1.71522
1.70923
1.95369
1.93427
1.90358
1.8777
1.85806
1.84046
1.82347
1.80777
1.7937
1.78103
1.76949
1.75897
1.74941
1.74072
1.73284
1.72566
1.71914
1.7132
1.96905
1.94558
1.90904
1.88037
1.86005
1.84195
1.82459
1.80887
1.795
1.78254
1.7712
1.76088
1.7515
1.74297
1.73519
1.72809
1.7216
1.71568
1.98816
1.95718
1.91234
1.88136
1.8609
1.8423
1.82464
1.80905
1.79541
1.78314
1.77198
1.76183
1.75259
1.74416
1.73645
1.7294
1.72293
1.71702
2.0123
1.96787
1.91261
1.88082
1.86069
1.84156
1.82379
1.80851
1.79513
1.78305
1.77205
1.76205
1.75293
1.74459
1.73695
1.72994
1.7235
1.7176
2.04281
1.9754
1.90946
1.8792
1.85951
1.83991
1.8224
1.80755
1.79444
1.78255
1.77173
1.76186
1.75285
1.74459
1.73701
1.73004
1.72362
1.71773
2.08131
1.9763
1.903
1.87695
1.85757
1.83785
1.82091
1.8065
1.79363
1.78192
1.77124
1.76149
1.75256
1.74436
1.73683
1.72989
1.7235
1.71762
2.13249
1.96888
1.89438
1.87429
1.85524
1.83588
1.81958
1.80553
1.79284
1.78127
1.7707
1.76104
1.75216
1.74401
1.73651
1.7296
1.72323
1.71737
2.20379
1.95805
1.88577
1.87107
1.85276
1.83418
1.81841
1.80459
1.79204
1.78059
1.77012
1.76051
1.75169
1.74357
1.73611
1.72922
1.72288
1.71703
2.27929
1.95117
1.87969
1.86826
1.85084
1.83296
1.8175
1.80383
1.7914
1.78003
1.76962
1.76006
1.75127
1.74319
1.73574
1.72888
1.72255
1.71671
1.59185
1.59181
1.59185
1.59202
1.59231
1.59271
1.59322
1.59383
1.59454
1.59534
1.59621
1.59716
1.59816
1.59922
1.60032
1.60145
1.60259
1.60373
1.60486
1.60596
1.60701
1.60801
1.60893
1.60977
1.6105
1.61111
1.6116
1.61194
1.61214
1.61217
1.61204
1.61174
1.61126
1.61059
1.60975
1.60872
1.6075
1.60611
1.60453
1.60278
1.60086
1.59877
1.59652
1.59411
1.59156
1.58885
1.58601
1.58304
1.57994
1.57672
1.57339
1.56995
1.5664
1.56276
1.55902
1.55519
1.55129
1.5473
1.54323
1.5391
1.53489
1.53062
1.52629
1.52189
1.51744
1.51294
1.50838
1.50376
1.4991
1.49439
1.48963
1.48483
1.47998
1.47509
1.47015
1.46517
1.46015
1.45508
1.44998
1.44483
1.43964
1.43441
1.42915
1.42384
1.41849
1.4131
1.40767
1.4022
1.39669
1.39113
1.38554
1.37991
1.37424
1.36853
1.36277
1.35697
1.35113
1.34525
1.33932
1.33335
1.32733
1.32127
1.31516
1.30901
1.30281
1.29656
1.29027
1.28393
1.27754
1.2711
1.26462
1.25809
1.2515
1.24487
1.23819
1.23146
1.22467
1.21784
1.21095
1.20401
1.19702
1.18997
1.18287
1.17572
1.16851
1.16124
1.15392
1.14655
1.13911
1.13162
1.12407
1.11646
1.10879
1.10106
1.09327
1.08543
1.07752
1.06954
1.06151
1.05342
1.04526
1.03704
1.02875
1.0204
1.01199
1.00351
0.994968
0.986357
0.977679
0.968933
0.960118
0.951236
0.942284
0.933263
0.924172
0.915011
0.905779
0.896477
0.887104
0.877659
0.868143
0.858556
0.848897
0.839168
0.829369
0.8195
0.809563
0.799561
0.789496
0.77937
0.769191
0.758964
0.748699
0.738409
0.728114
0.717837
0.707624
0.697519
0.687732
0.677794
1.59162
1.59159
1.59163
1.59179
1.59207
1.59245
1.59293
1.59352
1.59421
1.59498
1.59584
1.59677
1.59776
1.59881
1.5999
1.60102
1.60216
1.6033
1.60443
1.60554
1.6066
1.6076
1.60853
1.60937
1.6101
1.61073
1.61122
1.61157
1.61178
1.61182
1.6117
1.6114
1.61093
1.61027
1.60943
1.60841
1.6072
1.60582
1.60425
1.60251
1.60059
1.59851
1.59627
1.59387
1.59132
1.58863
1.5858
1.58283
1.57974
1.57653
1.57321
1.56977
1.56624
1.5626
1.55887
1.55505
1.55115
1.54717
1.54311
1.53899
1.53479
1.53052
1.52619
1.52181
1.51736
1.51286
1.5083
1.5037
1.49904
1.49433
1.48958
1.48478
1.47993
1.47504
1.47011
1.46513
1.46011
1.45505
1.44994
1.4448
1.43961
1.43439
1.42912
1.42381
1.41847
1.41308
1.40765
1.40218
1.39667
1.39112
1.38553
1.3799
1.37423
1.36852
1.36276
1.35697
1.35113
1.34524
1.33931
1.33334
1.32733
1.32126
1.31516
1.309
1.3028
1.29656
1.29026
1.28392
1.27754
1.2711
1.26462
1.25808
1.2515
1.24487
1.23819
1.23145
1.22467
1.21783
1.21095
1.20401
1.19702
1.18997
1.18287
1.17572
1.16851
1.16124
1.15392
1.14654
1.13911
1.13162
1.12407
1.11646
1.10879
1.10106
1.09327
1.08542
1.07751
1.06954
1.06151
1.05342
1.04526
1.03704
1.02875
1.0204
1.01199
1.00351
0.994967
0.986356
0.977677
0.968931
0.960117
0.951235
0.942283
0.933262
0.924171
0.91501
0.905778
0.896476
0.887103
0.877658
0.868142
0.858555
0.848896
0.839167
0.829368
0.8195
0.809563
0.799561
0.789496
0.779372
0.769193
0.758967
0.748703
0.738416
0.728122
0.717849
0.70764
0.697533
0.68773
0.677717
1.59092
1.5909
1.59096
1.59112
1.5914
1.59178
1.59226
1.59285
1.59354
1.59432
1.59519
1.59614
1.59715
1.59823
1.59935
1.6005
1.60167
1.60285
1.60401
1.60515
1.60625
1.60728
1.60825
1.60912
1.60989
1.61054
1.61105
1.61143
1.61165
1.61171
1.61159
1.6113
1.61084
1.61018
1.60935
1.60833
1.60712
1.60573
1.60416
1.60241
1.6005
1.59841
1.59617
1.59377
1.59121
1.58852
1.58568
1.58272
1.57963
1.57641
1.57309
1.56966
1.56612
1.56249
1.55876
1.55494
1.55105
1.54707
1.54301
1.53889
1.53469
1.53043
1.52611
1.52172
1.51728
1.51278
1.50823
1.50363
1.49897
1.49427
1.48952
1.48472
1.47988
1.47499
1.47006
1.46508
1.46007
1.45501
1.44991
1.44476
1.43958
1.43436
1.42909
1.42378
1.41844
1.41305
1.40762
1.40216
1.39665
1.3911
1.38551
1.37988
1.37421
1.3685
1.36275
1.35695
1.35111
1.34523
1.3393
1.33333
1.32732
1.32126
1.31515
1.309
1.3028
1.29655
1.29026
1.28392
1.27753
1.27109
1.26461
1.25808
1.25149
1.24486
1.23818
1.23145
1.22467
1.21783
1.21094
1.20401
1.19701
1.18997
1.18287
1.17571
1.1685
1.16124
1.15392
1.14654
1.13911
1.13162
1.12406
1.11646
1.10879
1.10106
1.09327
1.08542
1.07751
1.06954
1.06151
1.05341
1.04526
1.03704
1.02875
1.0204
1.01199
1.00351
0.994966
0.986354
0.977676
0.96893
0.960116
0.951233
0.942282
0.933261
0.92417
0.915008
0.905777
0.896474
0.887101
0.877656
0.86814
0.858553
0.848894
0.839165
0.829366
0.819497
0.80956
0.799558
0.789492
0.779367
0.769187
0.75896
0.748694
0.738403
0.728105
0.717825
0.707603
0.697465
0.687594
0.677404
1.58977
1.58975
1.58982
1.58999
1.59028
1.59068
1.59118
1.5918
1.59252
1.59334
1.59425
1.59524
1.59631
1.59744
1.59862
1.59984
1.60108
1.60233
1.60356
1.60477
1.60594
1.60704
1.60807
1.609
1.60982
1.61051
1.61107
1.61147
1.61172
1.6118
1.6117
1.61143
1.61096
1.61031
1.60947
1.60844
1.60722
1.60582
1.60424
1.60248
1.60055
1.59845
1.59619
1.59378
1.59121
1.5885
1.58566
1.58268
1.57958
1.57636
1.57303
1.56959
1.56604
1.56241
1.55868
1.55486
1.55096
1.54698
1.54292
1.5388
1.5346
1.53034
1.52602
1.52164
1.5172
1.5127
1.50815
1.50355
1.4989
1.4942
1.48945
1.48465
1.47981
1.47493
1.47
1.46503
1.46001
1.45496
1.44986
1.44472
1.43954
1.43431
1.42905
1.42375
1.4184
1.41302
1.40759
1.40213
1.39662
1.39107
1.38549
1.37986
1.37419
1.36848
1.36273
1.35693
1.3511
1.34522
1.33929
1.33332
1.3273
1.32124
1.31514
1.30899
1.30279
1.29654
1.29025
1.28391
1.27752
1.27109
1.2646
1.25807
1.25149
1.24486
1.23818
1.23144
1.22466
1.21783
1.21094
1.204
1.19701
1.18996
1.18286
1.17571
1.1685
1.16124
1.15392
1.14654
1.13911
1.13161
1.12406
1.11645
1.10879
1.10106
1.09327
1.08542
1.07751
1.06954
1.06151
1.05341
1.04525
1.03703
1.02875
1.0204
1.01199
1.00351
0.994964
0.986353
0.977675
0.968929
0.960115
0.951232
0.94228
0.933259
0.924168
0.915007
0.905775
0.896472
0.887098
0.877653
0.868137
0.858549
0.84889
0.83916
0.82936
0.81949
0.809552
0.799548
0.78948
0.779352
0.769168
0.758936
0.748663
0.738362
0.72805
0.717747
0.707488
0.697283
0.687275
0.676897
1.58817
1.58815
1.58822
1.58841
1.58871
1.58914
1.58968
1.59033
1.5911
1.59197
1.59295
1.59401
1.59516
1.59638
1.59765
1.59897
1.60031
1.60166
1.60299
1.60431
1.60557
1.60677
1.60788
1.60889
1.60978
1.61054
1.61115
1.61161
1.61189
1.612
1.61192
1.61166
1.6112
1.61055
1.6097
1.60866
1.60743
1.60601
1.60441
1.60263
1.60068
1.59856
1.59628
1.59384
1.59126
1.58853
1.58566
1.58267
1.57956
1.57632
1.57298
1.56953
1.56598
1.56233
1.55859
1.55477
1.55087
1.54688
1.54283
1.5387
1.5345
1.53024
1.52592
1.52154
1.5171
1.51261
1.50806
1.50346
1.49881
1.49411
1.48937
1.48457
1.47974
1.47486
1.46993
1.46496
1.45995
1.4549
1.4498
1.44466
1.43948
1.43426
1.429
1.4237
1.41836
1.41298
1.40755
1.40209
1.39659
1.39104
1.38546
1.37983
1.37416
1.36846
1.36271
1.35691
1.35108
1.3452
1.33927
1.3333
1.32729
1.32123
1.31512
1.30897
1.30278
1.29653
1.29024
1.2839
1.27751
1.27108
1.2646
1.25806
1.25148
1.24485
1.23817
1.23144
1.22466
1.21782
1.21094
1.204
1.19701
1.18996
1.18286
1.17571
1.1685
1.16123
1.15391
1.14654
1.1391
1.13161
1.12406
1.11645
1.10878
1.10106
1.09327
1.08542
1.07751
1.06954
1.06151
1.05341
1.04525
1.03703
1.02875
1.0204
1.01199
1.00351
0.994963
0.986352
0.977673
0.968927
0.960113
0.95123
0.942278
0.933257
0.924166
0.915004
0.905772
0.896469
0.887095
0.87765
0.868133
0.858544
0.848885
0.839154
0.829352
0.81948
0.80954
0.799533
0.789461
0.779328
0.769138
0.758896
0.748612
0.738294
0.727958
0.717619
0.707303
0.697008
0.68683
0.676281
1.5861
1.58607
1.58613
1.58633
1.58666
1.58711
1.58769
1.5884
1.58923
1.59018
1.59124
1.5924
1.59365
1.59498
1.59638
1.59782
1.59929
1.60078
1.60225
1.6037
1.60509
1.60641
1.60764
1.60876
1.60975
1.61059
1.61128
1.61179
1.61213
1.61227
1.61222
1.61197
1.61152
1.61087
1.61002
1.60897
1.60772
1.60628
1.60466
1.60285
1.60087
1.59873
1.59642
1.59395
1.59134
1.58859
1.58571
1.58269
1.57956
1.57631
1.57295
1.56948
1.56592
1.56226
1.55852
1.55469
1.55078
1.54679
1.54273
1.5386
1.5344
1.53014
1.52582
1.52143
1.517
1.5125
1.50796
1.50336
1.49871
1.49402
1.48927
1.48448
1.47965
1.47477
1.46985
1.46488
1.45987
1.45482
1.44973
1.4446
1.43942
1.43421
1.42895
1.42365
1.41831
1.41293
1.40751
1.40205
1.39655
1.391
1.38542
1.3798
1.37413
1.36843
1.36268
1.35689
1.35105
1.34517
1.33925
1.33328
1.32727
1.32121
1.31511
1.30896
1.30276
1.29652
1.29023
1.28389
1.2775
1.27107
1.26459
1.25805
1.25147
1.24484
1.23816
1.23143
1.22465
1.21782
1.21093
1.20399
1.197
1.18996
1.18286
1.1757
1.1685
1.16123
1.15391
1.14653
1.1391
1.13161
1.12406
1.11645
1.10878
1.10105
1.09326
1.08542
1.07751
1.06954
1.0615
1.05341
1.04525
1.03703
1.02875
1.0204
1.01198
1.00351
0.994961
0.98635
0.977672
0.968925
0.960111
0.951228
0.942276
0.933255
0.924163
0.915002
0.905769
0.896466
0.887092
0.877645
0.868128
0.858538
0.848877
0.839145
0.829341
0.819467
0.809524
0.799513
0.789436
0.779296
0.769097
0.758844
0.748543
0.738203
0.727836
0.717451
0.707067
0.69667
0.686316
0.675612
1.5835
1.58345
1.5835
1.58371
1.58405
1.58454
1.58517
1.58595
1.58685
1.58789
1.58905
1.59033
1.59171
1.59319
1.59474
1.59634
1.59799
1.59964
1.60129
1.60291
1.60447
1.60594
1.60732
1.60858
1.60969
1.61064
1.61142
1.61201
1.61241
1.6126
1.61259
1.61236
1.61192
1.61127
1.61041
1.60934
1.60808
1.60662
1.60497
1.60313
1.60112
1.59894
1.59661
1.59411
1.59147
1.58869
1.58578
1.58274
1.57958
1.57631
1.57293
1.56945
1.56588
1.56221
1.55845
1.55461
1.55069
1.54669
1.54263
1.53849
1.53429
1.53003
1.5257
1.52132
1.51688
1.51239
1.50785
1.50325
1.49861
1.49391
1.48917
1.48439
1.47955
1.47468
1.46976
1.4648
1.45979
1.45474
1.44965
1.44452
1.43935
1.43414
1.42888
1.42359
1.41825
1.41288
1.40746
1.402
1.3965
1.39096
1.38538
1.37976
1.3741
1.36839
1.36265
1.35686
1.35102
1.34515
1.33923
1.33326
1.32725
1.32119
1.31509
1.30894
1.30274
1.2965
1.29021
1.28387
1.27749
1.27106
1.26457
1.25804
1.25146
1.24483
1.23815
1.23142
1.22464
1.21781
1.21092
1.20399
1.197
1.18995
1.18285
1.1757
1.16849
1.16123
1.15391
1.14653
1.1391
1.13161
1.12406
1.11645
1.10878
1.10105
1.09326
1.08541
1.0775
1.06953
1.0615
1.05341
1.04525
1.03703
1.02874
1.0204
1.01198
1.0035
0.99496
0.986348
0.97767
0.968924
0.960109
0.951226
0.942274
0.933252
0.924161
0.914999
0.905766
0.896462
0.887087
0.87764
0.868122
0.858531
0.848869
0.839134
0.829328
0.819451
0.809504
0.799488
0.789405
0.779257
0.769047
0.75878
0.74846
0.738094
0.72769
0.717254
0.706795
0.696293
0.685773
0.674926
1.58029
1.58022
1.58026
1.58046
1.58083
1.58136
1.58205
1.58289
1.58388
1.58503
1.58632
1.58774
1.58928
1.59092
1.59266
1.59447
1.59632
1.59819
1.60005
1.60188
1.60365
1.60533
1.60689
1.60831
1.60957
1.61066
1.61155
1.61224
1.61271
1.61297
1.61299
1.6128
1.61237
1.61173
1.61086
1.60978
1.6085
1.60701
1.60533
1.60346
1.60142
1.59921
1.59683
1.59431
1.59164
1.58882
1.58588
1.58282
1.57963
1.57634
1.57294
1.56944
1.56584
1.56216
1.55839
1.55454
1.55061
1.5466
1.54253
1.53839
1.53419
1.52992
1.52559
1.52121
1.51677
1.51228
1.50773
1.50314
1.4985
1.4938
1.48907
1.48428
1.47945
1.47458
1.46966
1.46471
1.4597
1.45466
1.44957
1.44445
1.43928
1.43407
1.42882
1.42352
1.41819
1.41282
1.4074
1.40195
1.39645
1.39091
1.38534
1.37972
1.37406
1.36836
1.36261
1.35682
1.35099
1.34512
1.3392
1.33323
1.32722
1.32117
1.31507
1.30892
1.30272
1.29648
1.29019
1.28386
1.27747
1.27104
1.26456
1.25803
1.25145
1.24482
1.23814
1.23141
1.22463
1.2178
1.21092
1.20398
1.19699
1.18995
1.18285
1.17569
1.16849
1.16122
1.1539
1.14653
1.13909
1.1316
1.12405
1.11644
1.10878
1.10105
1.09326
1.08541
1.0775
1.06953
1.0615
1.0534
1.04525
1.03703
1.02874
1.02039
1.01198
1.0035
0.994958
0.986346
0.977668
0.968922
0.960107
0.951224
0.942272
0.93325
0.924158
0.914995
0.905762
0.896458
0.887082
0.877634
0.868115
0.858523
0.848859
0.839122
0.829314
0.819433
0.809482
0.79946
0.78937
0.779212
0.76899
0.758707
0.748366
0.737971
0.727528
0.717038
0.706502
0.695897
0.685225
0.674248
1.57639
1.57628
1.57629
1.5765
1.57689
1.57746
1.57821
1.57913
1.58022
1.58149
1.58292
1.5845
1.58623
1.58809
1.59005
1.5921
1.59421
1.59634
1.59847
1.60056
1.60258
1.6045
1.60629
1.60792
1.60937
1.61062
1.61165
1.61246
1.61303
1.61335
1.61343
1.61327
1.61287
1.61223
1.61136
1.61027
1.60896
1.60745
1.60573
1.60384
1.60176
1.59951
1.5971
1.59453
1.59183
1.58898
1.58601
1.58292
1.5797
1.57638
1.57296
1.56944
1.56583
1.56212
1.55834
1.55447
1.55053
1.54652
1.54244
1.53829
1.53408
1.52981
1.52548
1.5211
1.51666
1.51216
1.50762
1.50303
1.49838
1.49369
1.48896
1.48418
1.47935
1.47448
1.46957
1.46461
1.45961
1.45457
1.44949
1.44436
1.4392
1.43399
1.42874
1.42345
1.41812
1.41275
1.40734
1.40189
1.3964
1.39086
1.38529
1.37967
1.37401
1.36831
1.36257
1.35679
1.35096
1.34509
1.33917
1.33321
1.3272
1.32114
1.31504
1.3089
1.3027
1.29646
1.29018
1.28384
1.27746
1.27103
1.26455
1.25802
1.25144
1.24481
1.23813
1.2314
1.22462
1.21779
1.21091
1.20397
1.19698
1.18994
1.18284
1.17569
1.16848
1.16122
1.1539
1.14652
1.13909
1.1316
1.12405
1.11644
1.10877
1.10104
1.09326
1.08541
1.0775
1.06953
1.0615
1.0534
1.04524
1.03702
1.02874
1.02039
1.01198
1.0035
0.994956
0.986344
0.977666
0.968919
0.960105
0.951222
0.942269
0.933247
0.924155
0.914992
0.905758
0.896453
0.887077
0.877628
0.868107
0.858514
0.848848
0.839109
0.829297
0.819413
0.809457
0.799429
0.789331
0.779163
0.768928
0.758627
0.748263
0.737838
0.727354
0.716809
0.706198
0.695496
0.684688
0.673593
1.57167
1.57152
1.5715
1.5717
1.57211
1.57272
1.57353
1.57453
1.57573
1.57713
1.57871
1.58049
1.58243
1.58454
1.58677
1.58912
1.59154
1.59399
1.59645
1.59886
1.6012
1.60341
1.60548
1.60736
1.60904
1.61049
1.61169
1.61263
1.61332
1.61373
1.61388
1.61376
1.61338
1.61276
1.61189
1.61078
1.60945
1.60791
1.60617
1.60424
1.60212
1.59983
1.59738
1.59478
1.59204
1.58916
1.58616
1.58303
1.57979
1.57644
1.573
1.56945
1.56582
1.5621
1.5583
1.55442
1.55047
1.54644
1.54235
1.5382
1.53398
1.52971
1.52537
1.52099
1.51654
1.51205
1.5075
1.50291
1.49827
1.49358
1.48885
1.48407
1.47924
1.47438
1.46946
1.46451
1.45952
1.45448
1.4494
1.44428
1.43912
1.43391
1.42867
1.42338
1.41806
1.41269
1.40728
1.40183
1.39634
1.39081
1.38524
1.37962
1.37397
1.36827
1.36253
1.35675
1.35092
1.34505
1.33914
1.33318
1.32717
1.32112
1.31502
1.30887
1.30268
1.29644
1.29015
1.28382
1.27744
1.27101
1.26453
1.258
1.25143
1.2448
1.23812
1.23139
1.22461
1.21778
1.2109
1.20396
1.19697
1.18993
1.18283
1.17568
1.16848
1.16121
1.15389
1.14652
1.13908
1.13159
1.12404
1.11644
1.10877
1.10104
1.09325
1.08541
1.0775
1.06953
1.06149
1.0534
1.04524
1.03702
1.02874
1.02039
1.01198
1.0035
0.994954
0.986342
0.977664
0.968917
0.960102
0.951219
0.942266
0.933244
0.924151
0.914988
0.905754
0.896448
0.887071
0.877621
0.868099
0.858504
0.848836
0.839095
0.82928
0.819392
0.80943
0.799396
0.789289
0.779111
0.768862
0.758543
0.748155
0.737699
0.727173
0.716574
0.705892
0.695099
0.684172
0.672971
1.56599
1.56579
1.56573
1.56592
1.56634
1.56699
1.56784
1.56892
1.57023
1.57175
1.57351
1.57549
1.57769
1.58008
1.58264
1.58535
1.58814
1.591
1.59386
1.59667
1.59939
1.60198
1.60438
1.60658
1.60853
1.61022
1.61162
1.61274
1.61355
1.61407
1.6143
1.61424
1.6139
1.61329
1.61242
1.6113
1.60996
1.60839
1.60662
1.60465
1.60249
1.60017
1.59768
1.59505
1.59227
1.58935
1.58631
1.58315
1.57988
1.57651
1.57304
1.56947
1.56582
1.56208
1.55826
1.55437
1.55041
1.54637
1.54227
1.53811
1.53389
1.52961
1.52527
1.52088
1.51643
1.51194
1.50739
1.5028
1.49816
1.49347
1.48874
1.48396
1.47914
1.47427
1.46936
1.46441
1.45942
1.45438
1.44931
1.44419
1.43903
1.43383
1.42859
1.42331
1.41798
1.41262
1.40721
1.40177
1.39628
1.39075
1.38518
1.37957
1.37392
1.36823
1.36249
1.35671
1.35089
1.34502
1.3391
1.33314
1.32714
1.32109
1.31499
1.30885
1.30266
1.29642
1.29013
1.2838
1.27742
1.27099
1.26451
1.25799
1.25141
1.24479
1.23811
1.23138
1.2246
1.21777
1.21089
1.20396
1.19697
1.18992
1.18283
1.17568
1.16847
1.16121
1.15389
1.14651
1.13908
1.13159
1.12404
1.11643
1.10876
1.10104
1.09325
1.0854
1.07749
1.06952
1.06149
1.0534
1.04524
1.03702
1.02874
1.02039
1.01197
1.0035
0.994951
0.98634
0.977661
0.968915
0.9601
0.951216
0.942263
0.93324
0.924147
0.914984
0.905749
0.896443
0.887065
0.877614
0.86809
0.858494
0.848824
0.83908
0.829261
0.819369
0.809402
0.799361
0.789246
0.779056
0.768793
0.758455
0.748044
0.737556
0.72699
0.716338
0.705589
0.694713
0.683682
0.672386
1.55919
1.55893
1.55883
1.55899
1.55941
1.56007
1.56095
1.56208
1.56347
1.56513
1.56706
1.56927
1.57175
1.57448
1.57744
1.58058
1.58385
1.58719
1.59055
1.59386
1.59706
1.6001
1.60293
1.6055
1.60778
1.60976
1.61141
1.61273
1.61371
1.61435
1.61467
1.61468
1.61438
1.61379
1.61293
1.61181
1.61045
1.60886
1.60706
1.60506
1.60287
1.60051
1.59798
1.59531
1.59249
1.58954
1.58647
1.58328
1.57998
1.57658
1.57308
1.5695
1.56582
1.56207
1.55823
1.55432
1.55035
1.5463
1.54219
1.53802
1.53379
1.52951
1.52516
1.52077
1.51632
1.51182
1.50728
1.50268
1.49804
1.49335
1.48862
1.48385
1.47903
1.47416
1.46926
1.46431
1.45932
1.45429
1.44921
1.4441
1.43894
1.43375
1.42851
1.42323
1.41791
1.41255
1.40715
1.4017
1.39622
1.3907
1.38513
1.37952
1.37387
1.36818
1.36245
1.35667
1.35085
1.34498
1.33907
1.33311
1.32711
1.32106
1.31496
1.30882
1.30263
1.29639
1.29011
1.28378
1.2774
1.27097
1.2645
1.25797
1.2514
1.24477
1.2381
1.23137
1.22459
1.21776
1.21088
1.20395
1.19696
1.18992
1.18282
1.17567
1.16846
1.1612
1.15388
1.14651
1.13907
1.13158
1.12403
1.11643
1.10876
1.10103
1.09325
1.0854
1.07749
1.06952
1.06149
1.05339
1.04524
1.03702
1.02873
1.02039
1.01197
1.00349
0.994949
0.986337
0.977658
0.968912
0.960097
0.951213
0.94226
0.933237
0.924143
0.914979
0.905744
0.896437
0.887058
0.877606
0.868081
0.858483
0.848811
0.839064
0.829242
0.819346
0.809373
0.799325
0.789201
0.779
0.768722
0.758366
0.747931
0.737413
0.726808
0.716106
0.705294
0.694343
0.683221
0.671841
1.55109
1.55078
1.55062
1.55074
1.55113
1.55175
1.55263
1.55377
1.55521
1.55697
1.55908
1.56154
1.56434
1.56749
1.57093
1.57461
1.57847
1.58243
1.58641
1.59034
1.59414
1.59773
1.60107
1.60409
1.60678
1.60909
1.61103
1.61258
1.61375
1.61454
1.61498
1.61506
1.61481
1.61426
1.61341
1.61229
1.61092
1.60931
1.60748
1.60544
1.60322
1.60082
1.59827
1.59556
1.5927
1.58972
1.58662
1.5834
1.58007
1.57665
1.57313
1.56952
1.56582
1.56205
1.5582
1.55428
1.55029
1.54623
1.54211
1.53794
1.5337
1.52941
1.52506
1.52066
1.51621
1.51171
1.50716
1.50257
1.49793
1.49324
1.48851
1.48373
1.47892
1.47405
1.46915
1.46421
1.45922
1.45419
1.44912
1.44401
1.43885
1.43366
1.42843
1.42315
1.41783
1.41248
1.40708
1.40164
1.39616
1.39064
1.38507
1.37947
1.37382
1.36813
1.3624
1.35662
1.3508
1.34494
1.33903
1.33307
1.32707
1.32103
1.31493
1.30879
1.3026
1.29637
1.29009
1.28376
1.27738
1.27095
1.26448
1.25795
1.25138
1.24476
1.23808
1.23136
1.22458
1.21775
1.21087
1.20394
1.19695
1.18991
1.18281
1.17566
1.16846
1.16119
1.15388
1.1465
1.13907
1.13158
1.12403
1.11642
1.10875
1.10103
1.09324
1.08539
1.07749
1.06952
1.06148
1.05339
1.04523
1.03701
1.02873
1.02038
1.01197
1.00349
0.994946
0.986335
0.977656
0.968909
0.960094
0.95121
0.942256
0.933233
0.924139
0.914975
0.905739
0.896431
0.887051
0.877598
0.868072
0.858472
0.848797
0.839048
0.829223
0.819322
0.809344
0.799289
0.789156
0.778944
0.768651
0.758277
0.747818
0.737271
0.726628
0.71588
0.705009
0.693991
0.68279
0.671336
1.54155
1.54119
1.54097
1.54102
1.54132
1.54186
1.54266
1.54376
1.5452
1.54703
1.54931
1.55204
1.55524
1.55888
1.56293
1.5673
1.5719
1.57663
1.5814
1.58609
1.5906
1.59486
1.5988
1.60236
1.60551
1.60821
1.61048
1.61229
1.61367
1.61463
1.61519
1.61536
1.61517
1.61466
1.61383
1.61271
1.61133
1.60971
1.60785
1.60579
1.60354
1.60112
1.59852
1.59578
1.5929
1.58989
1.58675
1.58351
1.58016
1.57671
1.57316
1.56953
1.56582
1.56203
1.55816
1.55423
1.55023
1.54616
1.54203
1.53785
1.5336
1.5293
1.52495
1.52055
1.5161
1.5116
1.50705
1.50245
1.49781
1.49312
1.48839
1.48362
1.4788
1.47394
1.46904
1.4641
1.45912
1.45409
1.44902
1.44391
1.43876
1.43357
1.42834
1.42307
1.41776
1.4124
1.40701
1.40157
1.39609
1.39057
1.38501
1.37941
1.37377
1.36808
1.36235
1.35658
1.35076
1.3449
1.33899
1.33304
1.32704
1.32099
1.3149
1.30876
1.30257
1.29634
1.29006
1.28373
1.27736
1.27093
1.26446
1.25794
1.25136
1.24474
1.23807
1.23134
1.22457
1.21774
1.21086
1.20393
1.19694
1.1899
1.1828
1.17565
1.16845
1.16119
1.15387
1.1465
1.13906
1.13157
1.12402
1.11642
1.10875
1.10102
1.09324
1.08539
1.07748
1.06951
1.06148
1.05339
1.04523
1.03701
1.02873
1.02038
1.01197
1.00349
0.994943
0.986332
0.977653
0.968906
0.96009
0.951206
0.942252
0.933229
0.924135
0.91497
0.905734
0.896425
0.887044
0.87759
0.868063
0.858461
0.848784
0.839032
0.829203
0.819298
0.809314
0.799252
0.78911
0.778887
0.768581
0.758188
0.747707
0.737131
0.726453
0.715661
0.704739
0.693659
0.682389
0.67087
1.53048
1.5301
1.52981
1.52976
1.52992
1.53029
1.53093
1.53191
1.5333
1.53518
1.53763
1.5407
1.54439
1.54867
1.55348
1.55871
1.56423
1.56992
1.57562
1.58121
1.58657
1.5916
1.59622
1.60037
1.60402
1.60715
1.60976
1.61186
1.61346
1.6146
1.61528
1.61555
1.61544
1.61496
1.61416
1.61305
1.61167
1.61004
1.60817
1.60609
1.60382
1.60136
1.59874
1.59597
1.59306
1.59002
1.58687
1.58359
1.58022
1.57675
1.57318
1.56954
1.56581
1.562
1.55812
1.55417
1.55016
1.54608
1.54195
1.53775
1.5335
1.5292
1.52484
1.52044
1.51598
1.51148
1.50693
1.50233
1.49769
1.49301
1.48828
1.48351
1.47869
1.47383
1.46893
1.46399
1.45901
1.45399
1.44892
1.44382
1.43867
1.43348
1.42826
1.42299
1.41768
1.41233
1.40693
1.4015
1.39603
1.39051
1.38496
1.37936
1.37372
1.36803
1.3623
1.35653
1.35072
1.34486
1.33895
1.333
1.327
1.32096
1.31487
1.30873
1.30255
1.29631
1.29003
1.28371
1.27733
1.27091
1.26444
1.25792
1.25134
1.24472
1.23805
1.23133
1.22455
1.21773
1.21085
1.20392
1.19693
1.18989
1.1828
1.17565
1.16844
1.16118
1.15386
1.14649
1.13906
1.13157
1.12402
1.11641
1.10874
1.10102
1.09323
1.08539
1.07748
1.06951
1.06148
1.05338
1.04523
1.03701
1.02872
1.02038
1.01196
1.00348
0.99494
0.986328
0.977649
0.968902
0.960087
0.951202
0.942249
0.933225
0.92413
0.914965
0.905728
0.896419
0.887037
0.877582
0.868053
0.858449
0.848771
0.839016
0.829184
0.819274
0.809285
0.799216
0.789066
0.778831
0.768511
0.758102
0.747599
0.736997
0.726286
0.715454
0.704483
0.693349
0.682019
0.670444
1.51758
1.51721
1.51686
1.51667
1.51662
1.51675
1.51713
1.5179
1.51918
1.5211
1.52378
1.52728
1.53162
1.53674
1.54254
1.54887
1.55556
1.56242
1.56926
1.57592
1.58225
1.58814
1.59351
1.5983
1.60248
1.60605
1.60902
1.6114
1.61322
1.61452
1.61534
1.6157
1.61565
1.61522
1.61444
1.61335
1.61197
1.61032
1.60844
1.60635
1.60405
1.60157
1.59893
1.59614
1.5932
1.59014
1.58696
1.58366
1.58027
1.57678
1.57319
1.56953
1.56578
1.56196
1.55807
1.55411
1.55009
1.546
1.54186
1.53766
1.5334
1.52909
1.52473
1.52032
1.51586
1.51136
1.50681
1.50221
1.49757
1.49289
1.48816
1.48339
1.47857
1.47372
1.46882
1.46388
1.4589
1.45388
1.44882
1.44372
1.43858
1.43339
1.42817
1.4229
1.4176
1.41225
1.40686
1.40143
1.39596
1.39045
1.38489
1.3793
1.37366
1.36798
1.36225
1.35648
1.35067
1.34481
1.33891
1.33296
1.32696
1.32092
1.31483
1.3087
1.30251
1.29628
1.29001
1.28368
1.27731
1.27089
1.26442
1.2579
1.25133
1.24471
1.23804
1.23131
1.22454
1.21771
1.21084
1.2039
1.19692
1.18988
1.18279
1.17564
1.16843
1.16117
1.15386
1.14648
1.13905
1.13156
1.12401
1.11641
1.10874
1.10101
1.09323
1.08538
1.07747
1.0695
1.06147
1.05338
1.04522
1.037
1.02872
1.02037
1.01196
1.00348
0.994937
0.986325
0.977646
0.968899
0.960084
0.951199
0.942245
0.933221
0.924126
0.91496
0.905723
0.896413
0.88703
0.877574
0.868044
0.858439
0.848758
0.839
0.829165
0.819251
0.809257
0.799181
0.789022
0.778778
0.768445
0.758019
0.747496
0.736868
0.726127
0.715258
0.704245
0.693062
0.68168
0.670055
1.50371
1.50341
1.50304
1.5027
1.5024
1.50223
1.50231
1.50284
1.50403
1.50604
1.50906
1.51314
1.5183
1.52446
1.53146
1.53909
1.54711
1.55528
1.56334
1.57111
1.57841
1.58514
1.59121
1.59658
1.60124
1.60519
1.60845
1.61106
1.61306
1.6145
1.61541
1.61584
1.61584
1.61543
1.61467
1.61359
1.61221
1.61056
1.60866
1.60655
1.60424
1.60174
1.59908
1.59626
1.59331
1.59022
1.58702
1.58371
1.5803
1.57679
1.57319
1.56951
1.56575
1.56191
1.55801
1.55404
1.55001
1.54591
1.54176
1.53756
1.53329
1.52898
1.52462
1.52021
1.51575
1.51124
1.50669
1.50209
1.49745
1.49276
1.48804
1.48327
1.47846
1.4736
1.46871
1.46377
1.45879
1.45378
1.44872
1.44362
1.43848
1.4333
1.42808
1.42282
1.41751
1.41217
1.40678
1.40136
1.39589
1.39038
1.38483
1.37924
1.3736
1.36792
1.3622
1.35644
1.35062
1.34477
1.33887
1.33292
1.32692
1.32088
1.3148
1.30866
1.30248
1.29625
1.28998
1.28366
1.27728
1.27086
1.26439
1.25788
1.25131
1.24469
1.23802
1.2313
1.22453
1.2177
1.21082
1.20389
1.19691
1.18987
1.18278
1.17563
1.16842
1.16116
1.15385
1.14647
1.13904
1.13155
1.12401
1.1164
1.10873
1.10101
1.09322
1.08538
1.07747
1.0695
1.06147
1.05338
1.04522
1.037
1.02872
1.02037
1.01196
1.00348
0.994933
0.986322
0.977642
0.968895
0.96008
0.951195
0.94224
0.933216
0.924121
0.914955
0.905717
0.896406
0.887023
0.877566
0.868034
0.858427
0.848744
0.838984
0.829146
0.819228
0.809229
0.799147
0.78898
0.778726
0.76838
0.757939
0.747397
0.736747
0.725977
0.715075
0.704023
0.692798
0.68137
0.669702
1.49073
1.49054
1.49022
1.4898
1.48933
1.4889
1.48874
1.48911
1.49028
1.49248
1.49592
1.50069
1.50678
1.51407
1.52232
1.53124
1.54053
1.54986
1.55898
1.56767
1.57575
1.58311
1.5897
1.59548
1.60045
1.60465
1.6081
1.61085
1.61296
1.61448
1.61545
1.61592
1.61594
1.61556
1.61481
1.61373
1.61235
1.61069
1.60879
1.60667
1.60434
1.60184
1.59916
1.59633
1.59336