/*--------------------------------*- C++ -*----------------------------------*\
  =========                 |
  \\      /  F ield         | OpenFOAM: The Open Source CFD Toolbox
   \\    /   O peration     | Website:  https://openfoam.org
    \\  /    A nd           | Version:  8
     \\/     M anipulation  |
\*---------------------------------------------------------------------------*/
FoamFile
{
    version     2.0;
    format      ascii;
    class       surfaceScalarField;
    location    "0.1";
    object      phi;
}
// * * * * * * * * * * * * * * * * * * * * * * * * * * * * * * * * * * * * * //

dimensions      [0 3 -1 0 0 0 0];

internalField   nonuniform List<scalar> 
24170
(
9.21648e-08
1.46966e-07
4.62414e-08
4.59234e-08
3.49696e-08
1.12718e-08
3.0808e-08
4.16165e-09
2.85815e-08
2.22652e-09
2.72102e-08
1.37127e-09
2.64556e-08
7.54629e-10
2.61475e-08
3.08079e-10
2.61833e-08
-3.57573e-11
2.65207e-08
-3.37463e-10
2.71562e-08
-6.3545e-10
2.81178e-08
-9.61632e-10
2.94768e-08
-1.35897e-09
3.13775e-08
-1.90077e-09
3.41355e-08
-2.75798e-09
3.85187e-08
-4.38321e-09
4.69144e-08
-8.39568e-09
-3.04435e-08
7.7358e-08
2.00071e-07
2.03188e-07
1.39237e-07
1.06758e-07
1.09898e-07
4.06109e-08
9.5477e-08
1.85824e-08
8.79582e-08
9.74528e-09
8.35491e-08
5.78043e-09
8.09734e-08
3.33034e-09
7.97303e-08
1.55116e-09
7.95259e-08
1.68601e-10
8.02101e-08
-1.02164e-09
8.17423e-08
-2.16761e-09
8.41699e-08
-3.38922e-09
8.76426e-08
-4.83171e-09
9.24662e-08
-6.72441e-09
9.92274e-08
-9.51916e-09
1.09153e-07
-1.43086e-08
1.24727e-07
-2.39695e-08
-5.21955e-08
1.46479e-07
2.70817e-07
2.0706e-07
2.25748e-07
1.51827e-07
1.89402e-07
7.69569e-08
1.663e-07
4.16841e-08
1.52891e-07
2.31544e-08
1.44962e-07
1.37088e-08
1.40195e-07
8.09803e-09
1.37648e-07
4.09817e-09
1.36834e-07
9.82144e-10
1.37486e-07
-1.67352e-09
1.39497e-07
-4.17858e-09
1.42893e-07
-6.78522e-09
1.47835e-07
-9.77318e-09
1.54658e-07
-1.35479e-08
1.63954e-07
-1.88148e-08
1.76698e-07
-2.70531e-08
1.93895e-07
-4.11659e-08
-6.99457e-08
2.11645e-07
3.17837e-07
1.83627e-07
2.96446e-07
1.73218e-07
2.6539e-07
1.08014e-07
2.39524e-07
6.75497e-08
2.21701e-07
4.09771e-08
2.10374e-07
2.50364e-08
2.03294e-07
1.51775e-08
1.99212e-07
8.18076e-09
1.97475e-07
2.71859e-09
1.97713e-07
-1.91096e-09
1.99743e-07
-6.20885e-09
2.03537e-07
-1.05791e-08
2.09204e-07
-1.54398e-08
2.16998e-07
-2.13419e-08
2.27315e-07
-2.9132e-08
2.40572e-07
-4.03107e-08
2.5659e-07
-5.71829e-08
-8.4522e-08
2.71166e-07
3.49113e-07
1.50049e-07
3.49035e-07
1.73296e-07
3.30634e-07
1.26415e-07
3.09043e-07
8.91408e-08
2.9066e-07
5.93597e-08
2.77442e-07
3.82546e-08
2.68594e-07
2.40257e-08
2.63116e-07
1.36584e-08
2.60368e-07
5.46699e-09
2.59943e-07
-1.48665e-09
2.61611e-07
-7.87675e-09
2.65279e-07
-1.42466e-08
2.70969e-07
-2.11297e-08
2.7879e-07
-2.91631e-08
2.88864e-07
-3.92063e-08
3.01091e-07
-5.2538e-08
3.14605e-07
-7.06966e-08
-9.58591e-08
3.25942e-07
3.71736e-07
1.16494e-07
3.86011e-07
1.59021e-07
3.81596e-07
1.30829e-07
3.69104e-07
1.01633e-07
3.5471e-07
7.37531e-08
3.42421e-07
5.05437e-08
3.33305e-07
3.31414e-08
3.27193e-07
1.97704e-08
3.23759e-07
8.90122e-09
3.22715e-07
-4.42025e-10
3.23849e-07
-9.01103e-09
3.27035e-07
-1.74323e-08
3.3221e-07
-2.63055e-08
3.39331e-07
-3.62836e-08
3.48264e-07
-4.81392e-08
3.58553e-07
-6.28276e-08
3.69056e-07
-8.11995e-08
-1.03962e-07
3.77159e-07
3.91243e-07
8.77055e-08
4.12578e-07
1.37686e-07
4.19192e-07
1.24215e-07
4.16891e-07
1.03935e-07
4.09552e-07
8.10915e-08
4.0114e-07
5.89555e-08
3.93875e-07
4.0407e-08
3.88498e-07
2.5147e-08
3.85201e-07
1.21987e-08
3.83967e-07
7.91273e-10
3.8471e-07
-9.75407e-09
3.87328e-07
-2.00496e-08
3.91711e-07
-3.06891e-08
3.977e-07
-4.2272e-08
4.04982e-07
-5.54218e-08
4.12921e-07
-7.0766e-08
4.20364e-07
-8.86432e-08
-1.09021e-07
4.25424e-07
4.11225e-07
6.49491e-08
4.34235e-07
1.14676e-07
4.47381e-07
1.11069e-07
4.53308e-07
9.80075e-08
4.53549e-07
8.08503e-08
4.50728e-07
6.17769e-08
4.47136e-07
4.39994e-08
4.44008e-07
2.82747e-08
4.41965e-07
1.42417e-08
4.41298e-07
1.45768e-09
4.42105e-07
-1.05605e-08
4.44367e-07
-2.23116e-08
4.47982e-07
-3.43046e-08
4.52736e-07
-4.70261e-08
4.58235e-07
-6.09206e-08
4.63803e-07
-7.63336e-08
4.68431e-07
-9.32718e-08
-1.11388e-07
4.70798e-07
4.33563e-07
4.77367e-08
4.55218e-07
9.30199e-08
4.70983e-07
9.53049e-08
4.81907e-07
8.70832e-08
4.8816e-07
7.4597e-08
4.90862e-07
5.90748e-08
4.91669e-07
4.31924e-08
4.91776e-07
2.81683e-08
4.9194e-07
1.40771e-08
4.92635e-07
7.63111e-10
4.94107e-07
-1.20328e-08
4.96436e-07
-2.46406e-08
4.99561e-07
-3.74293e-08
5.03271e-07
-5.07357e-08
5.07173e-07
-6.48236e-08
5.10658e-07
-7.98184e-08
5.12925e-07
-9.55389e-08
-1.11544e-07
5.13082e-07
4.58995e-07
3.49749e-08
4.78066e-07
7.39489e-08
4.93984e-07
7.93865e-08
5.07001e-07
7.40662e-08
5.16865e-07
6.47329e-08
5.23704e-07
5.2236e-08
5.28406e-07
3.8491e-08
5.31813e-07
2.47608e-08
5.34551e-07
1.13395e-08
5.37081e-07
-1.76704e-09
5.39693e-07
-1.46451e-08
5.42518e-07
-2.74657e-08
5.45532e-07
-4.04427e-08
5.48557e-07
-5.3761e-08
5.51258e-07
-6.7525e-08
5.53144e-07
-8.17041e-08
5.53633e-07
-9.60277e-08
-1.10066e-07
5.52154e-07
4.87655e-07
2.55811e-08
5.03916e-07
5.76878e-08
5.18875e-07
6.44273e-08
5.32145e-07
6.07958e-08
5.43511e-07
5.33676e-08
5.52709e-07
4.30377e-08
5.60073e-07
3.1127e-08
5.66064e-07
1.87695e-08
5.71063e-07
6.34069e-09
5.75388e-07
-6.09149e-09
5.79266e-07
-1.8524e-08
5.82811e-07
-3.10102e-08
5.86004e-07
-4.36356e-08
5.88702e-07
-5.64592e-08
5.90642e-07
-6.9465e-08
5.91463e-07
-8.25251e-08
5.90778e-07
-9.53429e-08
-1.07541e-07
5.88254e-07
4.36561e-07
1.95828e-08
4.48205e-07
4.60433e-08
4.5998e-07
5.26525e-08
4.7077e-07
5.00059e-08
4.80502e-07
4.36359e-08
4.88993e-07
3.45461e-08
4.96285e-07
2.38349e-08
5.02546e-07
1.25089e-08
5.0794e-07
9.46566e-10
5.12615e-07
-1.07665e-08
5.16681e-07
-2.25895e-08
5.20181e-07
-3.45109e-08
5.23085e-07
-4.65391e-08
5.25282e-07
-5.86567e-08
5.26598e-07
-7.07809e-08
5.26814e-07
-8.27403e-08
5.25719e-07
-9.4248e-08
-1.04984e-07
5.23162e-07
5.30235e-07
1.4209e-08
5.41613e-07
3.46654e-08
5.53752e-07
4.05142e-08
5.65347e-07
3.84106e-08
5.76201e-07
3.27814e-08
5.86058e-07
2.46891e-08
5.94862e-07
1.50318e-08
6.02685e-07
4.68561e-09
6.09598e-07
-5.96675e-09
6.15653e-07
-1.6821e-08
6.20879e-07
-2.78154e-08
6.25266e-07
-3.88981e-08
6.28749e-07
-5.00224e-08
6.3121e-07
-6.11175e-08
6.32489e-07
-7.20603e-08
6.32414e-07
-8.26649e-08
6.30844e-07
-9.26777e-08
-1.0184e-07
6.277e-07
6.44524e-07
9.49829e-09
6.55314e-07
2.3876e-08
6.67552e-07
2.82758e-08
6.79702e-07
2.62612e-08
6.91395e-07
2.1088e-08
7.02296e-07
1.37877e-08
7.12257e-07
5.07158e-09
7.21281e-07
-4.33913e-09
7.29377e-07
-1.40629e-08
7.36522e-07
-2.39651e-08
7.42673e-07
-3.39664e-08
7.47764e-07
-4.3989e-08
7.51694e-07
-5.39527e-08
7.54336e-07
-6.37595e-08
7.55551e-07
-7.32756e-08
7.55215e-07
-8.23287e-08
7.53252e-07
-9.0715e-08
-9.82432e-08
7.49655e-07
7.84001e-07
5.43903e-09
7.93971e-07
1.39057e-08
8.06089e-07
1.61576e-08
8.18595e-07
1.37552e-08
8.30905e-07
8.77771e-09
8.42595e-07
2.09791e-09
8.53408e-07
-5.74076e-09
8.63266e-07
-1.41975e-08
8.72129e-07
-2.29258e-08
8.79931e-07
-3.17677e-08
8.86591e-07
-4.0626e-08
8.9201e-07
-4.94076e-08
8.96074e-07
-5.80169e-08
8.98664e-07
-6.63494e-08
8.99671e-07
-7.42827e-08
8.9902e-07
-8.16777e-08
8.96692e-07
-8.83872e-08
-9.42843e-08
8.92733e-07
9.54264e-07
1.93454e-09
9.63376e-07
4.79393e-09
9.75196e-07
4.33676e-09
9.87904e-07
1.0474e-09
1.00067e-06
-3.99025e-09
1.01296e-06
-1.01883e-08
1.0244e-06
-1.71783e-08
1.0348e-06
-2.46056e-08
1.04408e-06
-3.22052e-08
1.05214e-06
-3.9827e-08
1.05889e-06
-4.73699e-08
1.06422e-06
-5.47395e-08
1.06804e-06
-6.18415e-08
1.07027e-06
-6.85808e-08
1.07085e-06
-7.48592e-08
1.06975e-06
-8.05763e-08
1.067e-06
-8.56376e-08
-8.99704e-08
1.06269e-06
1.16211e-06
-1.18875e-09
1.17058e-06
-3.67514e-09
1.18216e-06
-7.23753e-09
1.19505e-06
-1.18471e-08
1.20822e-06
-1.716e-08
1.22099e-06
-2.29561e-08
1.23289e-06
-2.90804e-08
1.24365e-06
-3.53619e-08
1.25309e-06
-4.16537e-08
1.26112e-06
-4.78557e-08
1.26764e-06
-5.38897e-08
1.27258e-06
-5.96798e-08
1.27589e-06
-6.51493e-08
1.27753e-06
-7.02243e-08
1.27751e-06
-7.48341e-08
1.27585e-06
-7.89139e-08
1.27262e-06
-8.24095e-08
-8.5286e-08
1.26793e-06
1.41584e-06
-4.20424e-09
1.42431e-06
-1.21427e-08
1.43622e-06
-1.91537e-08
1.44974e-06
-2.53644e-08
1.46361e-06
-3.10261e-08
1.47702e-06
-3.63683e-08
1.48944e-06
-4.14992e-08
1.50052e-06
-4.64435e-08
1.51007e-06
-5.1201e-08
1.51797e-06
-5.57599e-08
1.52417e-06
-6.00922e-08
1.52865e-06
-6.41561e-08
1.5314e-06
-6.79024e-08
1.53246e-06
-7.12811e-08
1.53187e-06
-7.42448e-08
1.52971e-06
-7.67529e-08
1.52607e-06
-7.87753e-08
-8.02994e-08
1.52109e-06
1.72583e-06
-7.78239e-09
1.73601e-06
-2.23209e-08
1.75017e-06
-3.33127e-08
1.76596e-06
-4.11599e-08
1.78186e-06
-4.69262e-08
1.79696e-06
-5.14684e-08
1.81069e-06
-5.52275e-08
1.82271e-06
-5.84603e-08
1.83285e-06
-6.1348e-08
1.84108e-06
-6.39879e-08
1.8474e-06
-6.64061e-08
1.85183e-06
-6.859e-08
1.85444e-06
-7.05087e-08
1.85528e-06
-7.21245e-08
1.85444e-06
-7.34012e-08
1.85199e-06
-7.43107e-08
1.84805e-06
-7.48371e-08
-7.49821e-08
1.84274e-06
1.26441e-06
-1.13903e-08
1.2742e-06
-3.21059e-08
1.28696e-06
-4.60781e-08
1.30023e-06
-5.4424e-08
1.31293e-06
-5.96313e-08
1.32463e-06
-6.31659e-08
1.33501e-06
-6.56137e-08
1.34394e-06
-6.73862e-08
1.35139e-06
-6.8797e-08
1.35739e-06
-6.99874e-08
1.36197e-06
-7.09829e-08
1.36514e-06
-7.17675e-08
1.36695e-06
-7.23122e-08
1.36741e-06
-7.25851e-08
1.36657e-06
-7.25608e-08
1.36448e-06
-7.22267e-08
1.36123e-06
-7.15826e-08
-7.06495e-08
1.3569e-06
1.10243e-06
-1.62325e-08
1.11487e-06
-4.45382e-08
1.12967e-06
-6.08821e-08
1.14393e-06
-6.86873e-08
1.15707e-06
-7.27621e-08
1.16887e-06
-7.49667e-08
1.17911e-06
-7.58608e-08
1.18774e-06
-7.60092e-08
1.19475e-06
-7.58132e-08
1.20017e-06
-7.54007e-08
1.20397e-06
-7.47841e-08
1.20616e-06
-7.39612e-08
1.20678e-06
-7.29285e-08
1.20587e-06
-7.16821e-08
1.20354e-06
-7.02245e-08
1.19988e-06
-6.85686e-08
1.19503e-06
-6.67329e-08
-6.47556e-08
1.18914e-06
9.62709e-07
-2.34312e-08
9.79448e-07
-6.12772e-08
9.972e-07
-7.86341e-08
1.01316e-06
-8.46517e-08
1.02741e-06
-8.70082e-08
1.03969e-06
-8.72498e-08
1.04969e-06
-8.58622e-08
1.05736e-06
-8.36794e-08
1.06274e-06
-8.1189e-08
1.06587e-06
-7.85259e-08
1.06683e-06
-7.5748e-08
1.06578e-06
-7.29107e-08
1.0629e-06
-7.00503e-08
1.05841e-06
-6.71863e-08
1.05251e-06
-6.43326e-08
1.04545e-06
-6.15028e-08
1.03742e-06
-5.87079e-08
-5.59754e-08
1.02864e-06
8.43162e-07
-3.47732e-08
8.65879e-07
-8.39943e-08
8.87019e-07
-9.97744e-08
9.04747e-07
-1.02379e-07
9.19381e-07
-1.01642e-07
9.3026e-07
-9.81286e-08
9.37181e-07
-9.27837e-08
9.40472e-07
-8.69708e-08
9.40551e-07
-8.12676e-08
9.37847e-07
-7.58224e-08
9.32819e-07
-7.07198e-08
9.25914e-07
-6.60054e-08
9.17537e-07
-6.16731e-08
9.08042e-07
-5.76911e-08
8.97732e-07
-5.40233e-08
8.86865e-07
-5.06359e-08
8.75654e-07
-4.74965e-08
-4.45943e-08
8.64273e-07
7.42425e-07
-5.30574e-08
7.72222e-07
-1.13791e-07
7.95591e-07
-1.23143e-07
8.12367e-07
-1.19155e-07
8.22736e-07
-1.12012e-07
8.26467e-07
-1.0186e-07
8.24669e-07
-9.0985e-08
8.18779e-07
-8.10814e-08
8.09956e-07
-7.24447e-08
7.99118e-07
-6.49837e-08
7.8699e-07
-5.85924e-08
7.74117e-07
-5.31315e-08
7.60885e-07
-4.84417e-08
7.47573e-07
-4.43793e-08
7.34378e-07
-4.08282e-08
7.21438e-07
-3.76956e-08
7.08848e-07
-3.4907e-08
-3.24169e-08
6.96671e-07
6.59108e-07
-8.17641e-08
6.94089e-07
-1.48772e-07
7.13831e-07
-1.42886e-07
7.21564e-07
-1.26888e-07
7.19112e-07
-1.09559e-07
7.09044e-07
-9.17925e-08
6.94691e-07
-7.6631e-08
6.78354e-07
-6.47452e-08
6.61342e-07
-5.54321e-08
6.44419e-07
-4.80607e-08
6.28016e-07
-4.21894e-08
6.12341e-07
-3.74573e-08
5.9748e-07
-3.35798e-08
5.83449e-07
-3.0349e-08
5.70236e-07
-2.76152e-08
5.57809e-07
-2.52684e-08
5.46129e-07
-2.32272e-08
-2.14393e-08
5.35152e-07
5.89572e-07
-1.2254e-07
6.20171e-07
-1.7937e-07
6.24006e-07
-1.4672e-07
6.12248e-07
-1.1513e-07
5.91398e-07
-8.87101e-08
5.67327e-07
-6.77209e-08
5.43763e-07
-5.30671e-08
5.21995e-07
-4.29772e-08
5.02264e-07
-3.57012e-08
4.84493e-07
-3.02904e-08
4.68485e-07
-2.61811e-08
4.5401e-07
-2.2982e-08
4.40858e-07
-2.0428e-08
4.28853e-07
-1.83436e-08
4.17846e-07
-1.6609e-08
4.07717e-07
-1.5139e-08
3.98365e-07
-1.38749e-08
-1.27768e-08
3.89702e-07
5.24092e-07
-1.68878e-07
5.31003e-07
-1.86281e-07
5.06907e-07
-1.22625e-07
4.73353e-07
-8.15751e-08
4.39745e-07
-5.51026e-08
4.10776e-07
-3.8752e-08
3.86943e-07
-2.92341e-08
3.6716e-07
-2.31938e-08
3.50452e-07
-1.89936e-08
3.36126e-07
-1.59637e-08
3.2366e-07
-1.37159e-08
3.12671e-07
-1.1993e-08
3.02876e-07
-1.06331e-08
2.94066e-07
-9.53295e-09
2.8608e-07
-8.62328e-09
2.78796e-07
-7.85538e-09
2.72119e-07
-7.19796e-09
-6.62789e-09
2.6597e-07
4.4444e-07
-1.97407e-07
4.08007e-07
-1.49849e-07
3.58424e-07
-7.30418e-08
3.16217e-07
-3.93676e-08
2.84628e-07
-2.35136e-08
2.61857e-07
-1.59814e-08
2.4467e-07
-1.20468e-08
2.30987e-07
-9.51039e-09
2.19739e-07
-7.74557e-09
2.10271e-07
-6.49603e-09
2.02135e-07
-5.57985e-09
1.95023e-07
-4.88121e-09
1.88722e-07
-4.33168e-09
1.83077e-07
-3.88808e-09
1.77975e-07
-3.52151e-09
1.73331e-07
-3.21146e-09
1.6908e-07
-2.94679e-09
-2.71601e-09
1.65168e-07
3.28069e-07
-1.63406e-07
2.49484e-07
-7.12636e-08
1.9846e-07
-2.20172e-08
1.68118e-07
-9.0256e-09
1.49678e-07
-5.07427e-09
1.37316e-07
-3.61871e-09
1.28042e-07
-2.77285e-09
1.20707e-07
-2.17574e-09
1.14731e-07
-1.76895e-09
1.09722e-07
-1.48776e-09
1.05425e-07
-1.28216e-09
1.01668e-07
-1.12512e-09
9.83383e-08
-1.00152e-09
9.53518e-08
-9.01607e-10
9.26491e-08
-8.18806e-10
9.01859e-08
-7.48212e-10
8.79277e-08
-6.88561e-10
-6.35104e-10
8.58467e-08
1.51795e-07
8.0531e-08
5.85138e-08
4.94882e-08
4.44139e-08
4.07952e-08
3.80224e-08
3.58466e-08
3.40777e-08
3.25899e-08
3.13078e-08
3.01826e-08
2.91811e-08
2.82795e-08
2.74607e-08
2.67125e-08
2.60239e-08
2.53888e-08
-3.28929e-10
3.28929e-10
-1.01268e-09
6.83753e-10
-1.8266e-09
8.1392e-10
-2.62392e-09
7.97313e-10
-3.31669e-09
6.92777e-10
-3.8543e-09
5.37608e-10
-4.20983e-09
3.55527e-10
-4.37058e-09
1.60757e-10
-4.33207e-09
-3.85164e-11
-4.09412e-09
-2.3795e-10
-3.65857e-09
-4.35547e-10
-3.02799e-09
-6.30583e-10
-2.20519e-09
-8.22796e-10
-1.19311e-09
-1.01209e-09
5.13914e-12
-1.19825e-09
1.38589e-09
-1.38075e-09
2.94478e-09
-1.55889e-09
4.67646e-09
-1.73169e-09
6.57444e-09
-1.89798e-09
8.63084e-09
-2.0564e-09
1.08364e-08
-2.20554e-09
1.31803e-08
-2.34391e-09
1.56504e-08
-2.47013e-09
1.82333e-08
-2.5829e-09
2.09144e-08
-2.68112e-09
2.36783e-08
-2.7639e-09
2.65089e-08
-2.83059e-09
2.93897e-08
-2.88082e-09
3.23043e-08
-2.91452e-09
3.52361e-08
-2.93184e-09
3.81693e-08
-2.93324e-09
4.10887e-08
-2.91937e-09
4.39798e-08
-2.89112e-09
4.68294e-08
-2.84952e-09
4.96251e-08
-2.79574e-09
5.23562e-08
-2.73106e-09
5.5013e-08
-2.6568e-09
5.75873e-08
-2.57431e-09
6.00722e-08
-2.48494e-09
6.24622e-08
-2.39001e-09
6.4753e-08
-2.29078e-09
6.69415e-08
-2.18845e-09
6.90256e-08
-2.08411e-09
7.10043e-08
-1.97878e-09
7.28777e-08
-1.87336e-09
7.46464e-08
-1.76866e-09
7.63117e-08
-1.66539e-09
7.78759e-08
-1.56413e-09
7.93413e-08
-1.4654e-09
8.07109e-08
-1.3696e-09
8.19879e-08
-1.27706e-09
8.3176e-08
-1.18803e-09
8.42787e-08
-1.10269e-09
8.52998e-08
-1.02117e-09
8.62434e-08
-9.43529e-10
8.71131e-08
-8.69782e-10
8.79131e-08
-7.99916e-10
8.86469e-08
-7.33871e-10
8.93185e-08
-6.71574e-10
8.99314e-08
-6.1292e-10
9.04892e-08
-5.5779e-10
9.09953e-08
-5.06054e-10
9.14528e-08
-4.5757e-10
9.1865e-08
-4.12188e-10
9.22348e-08
-3.69761e-10
9.25649e-08
-3.30135e-10
9.28581e-08
-2.93157e-10
9.31168e-08
-2.58679e-10
9.33433e-08
-2.26555e-10
9.35399e-08
-1.96637e-10
9.37087e-08
-1.68795e-10
9.38516e-08
-1.42889e-10
9.39704e-08
-1.18792e-10
9.40668e-08
-9.63838e-11
9.41423e-08
-7.55443e-11
9.41985e-08
-5.61666e-11
9.42367e-08
-3.81531e-11
9.42581e-08
-2.14835e-11
9.4265e-08
-6.8193e-12
9.42574e-08
7.57327e-12
9.42353e-08
2.21351e-11
9.42007e-08
3.45666e-11
9.41546e-08
4.60921e-11
9.40978e-08
5.68471e-11
9.40309e-08
6.68599e-11
9.39547e-08
7.62112e-11
9.38697e-08
8.49504e-11
9.37766e-08
9.31171e-11
9.36759e-08
1.00738e-10
9.3568e-08
1.07835e-10
9.34536e-08
1.14424e-10
9.33331e-08
1.20527e-10
9.32069e-08
1.2618e-10
9.30755e-08
1.3143e-10
9.29391e-08
1.36335e-10
9.27982e-08
1.4094e-10
9.26529e-08
1.45284e-10
9.25035e-08
1.49398e-10
9.23502e-08
1.53296e-10
9.21932e-08
1.56995e-10
9.20327e-08
1.60506e-10
9.18689e-08
1.63843e-10
9.17019e-08
1.67013e-10
9.15318e-08
1.70034e-10
9.13589e-08
1.72908e-10
9.11833e-08
1.75652e-10
9.1005e-08
1.78271e-10
9.08242e-08
1.80776e-10
9.0641e-08
1.83173e-10
9.04556e-08
1.85472e-10
9.02679e-08
1.87679e-10
9.00781e-08
1.89803e-10
8.98862e-08
1.91846e-10
8.96924e-08
1.93819e-10
8.94967e-08
1.95727e-10
8.92991e-08
1.97577e-10
8.90997e-08
1.99373e-10
8.88986e-08
2.0113e-10
8.86958e-08
2.02846e-10
8.84912e-08
2.04535e-10
8.8285e-08
2.06195e-10
8.80772e-08
2.07831e-10
8.78678e-08
2.09438e-10
8.76567e-08
2.11021e-10
8.74442e-08
2.12575e-10
8.72301e-08
2.14105e-10
8.70144e-08
2.15622e-10
8.67973e-08
2.17127e-10
8.65787e-08
2.1863e-10
8.63585e-08
2.20137e-10
8.61369e-08
2.21647e-10
8.59137e-08
2.2317e-10
8.5689e-08
2.247e-10
8.54628e-08
2.26244e-10
8.5235e-08
2.27801e-10
8.50056e-08
2.2937e-10
8.47747e-08
2.30946e-10
8.45421e-08
2.32531e-10
8.4308e-08
2.34115e-10
8.40723e-08
2.35696e-10
8.38351e-08
2.37271e-10
8.35962e-08
2.38838e-10
8.33558e-08
2.40401e-10
8.31138e-08
2.41964e-10
8.28703e-08
2.43537e-10
8.26252e-08
2.45128e-10
8.23784e-08
2.4675e-10
8.213e-08
2.48412e-10
8.18799e-08
2.50123e-10
8.1628e-08
2.5189e-10
8.13743e-08
2.53718e-10
8.11187e-08
2.55618e-10
8.08611e-08
2.57601e-10
8.06014e-08
2.59681e-10
8.03395e-08
2.61881e-10
8.00753e-08
2.64228e-10
7.98085e-08
2.66761e-10
7.9539e-08
2.69526e-10
7.92664e-08
2.72585e-10
7.89904e-08
2.76015e-10
7.87105e-08
2.79922e-10
7.8426e-08
2.84434e-10
7.81363e-08
2.89724e-10
7.78403e-08
2.96015e-10
7.75367e-08
3.03602e-10
7.72238e-08
3.12874e-10
7.68995e-08
3.24345e-10
7.65608e-08
3.38718e-10
7.62038e-08
3.56943e-10
7.58235e-08
3.80339e-10
7.54127e-08
4.10769e-10
7.49618e-08
4.50936e-10
7.44569e-08
5.04855e-10
7.3878e-08
5.7895e-10
7.31948e-08
6.83177e-10
7.23558e-08
8.39027e-10
7.12818e-08
1.07397e-09
6.97306e-08
1.55122e-09
6.73876e-08
2.343e-09
5.0315e-09
6.23561e-08
-4.43468e-10
7.72397e-10
-1.30205e-09
1.54234e-09
-2.24999e-09
1.76186e-09
-3.0771e-09
1.62442e-09
-3.65025e-09
1.26592e-09
-3.88991e-09
7.7727e-10
-3.75271e-09
2.18332e-10
-3.21874e-09
-3.7322e-10
-2.28235e-09
-9.74903e-10
-9.46168e-10
-1.57413e-09
7.82656e-10
-2.16437e-09
2.8947e-09
-2.74263e-09
5.37964e-09
-3.30774e-09
8.22675e-09
-3.8592e-09
1.14249e-08
-4.39642e-09
1.49625e-08
-4.91837e-09
1.8827e-08
-5.42339e-09
2.30046e-08
-5.90921e-09
2.74796e-08
-6.373e-09
3.22347e-08
-6.81152e-09
3.72505e-08
-7.22128e-09
4.25053e-08
-7.59875e-09
4.79757e-08
-7.94054e-09
5.36364e-08
-8.24354e-09
5.94604e-08
-8.50512e-09
6.54196e-08
-8.72317e-09
7.14853e-08
-8.89625e-09
7.7628e-08
-9.02358e-09
8.38186e-08
-9.10509e-09
9.00282e-08
-9.14139e-09
9.62287e-08
-9.13375e-09
1.02393e-07
-9.084e-09
1.08497e-07
-8.99451e-09
1.14515e-07
-8.86805e-09
1.20427e-07
-8.70774e-09
1.26213e-07
-8.51696e-09
1.31856e-07
-8.29922e-09
1.37339e-07
-8.05812e-09
1.42652e-07
-7.79726e-09
1.47782e-07
-7.52016e-09
1.52721e-07
-7.23022e-09
1.57463e-07
-6.93066e-09
1.62004e-07
-6.62451e-09
1.6634e-07
-6.31454e-09
1.7047e-07
-6.0033e-09
1.74394e-07
-5.69304e-09
1.78114e-07
-5.38576e-09
1.81633e-07
-5.08322e-09
1.84955e-07
-4.78689e-09
1.88083e-07
-4.49802e-09
1.91024e-07
-4.21764e-09
1.93782e-07
-3.94656e-09
1.96365e-07
-3.68539e-09
1.98779e-07
-3.4346e-09
2.0103e-07
-3.19448e-09
2.03125e-07
-2.9652e-09
2.05072e-07
-2.74679e-09
2.06877e-07
-2.53922e-09
2.08548e-07
-2.34234e-09
2.10091e-07
-2.15595e-09
2.11513e-07
-1.97979e-09
2.1282e-07
-1.81355e-09
2.1402e-07
-1.65689e-09
2.15117e-07
-1.50944e-09
2.16118e-07
-1.37081e-09
2.17029e-07
-1.24062e-09
2.17854e-07
-1.11845e-09
2.18599e-07
-1.00391e-09
2.19269e-07
-8.96587e-10
2.19869e-07
-7.961e-10
2.20402e-07
-7.02057e-10
2.20873e-07
-6.14092e-10
2.21286e-07
-5.31843e-10
2.21645e-07
-4.54958e-10
2.21952e-07
-3.83119e-10
2.22212e-07
-3.16008e-10
2.22427e-07
-2.53341e-10
2.22601e-07
-1.94868e-10
2.22734e-07
-1.40371e-10
2.22831e-07
-8.92004e-11
2.22894e-07
-4.11616e-11
2.22925e-07
3.57258e-12
2.22926e-07
4.51416e-11
2.22899e-07
8.41069e-11
2.22845e-07
1.20433e-10
2.22767e-07
1.54448e-10
2.22666e-07
1.86272e-10
2.22543e-07
2.1606e-10
2.224e-07
2.43937e-10
2.22237e-07
2.7003e-10
2.22057e-07
2.94442e-10
2.21861e-07
3.17279e-10
2.21648e-07
3.3865e-10
2.21421e-07
3.58672e-10
2.2118e-07
3.77462e-10
2.20926e-07
3.95128e-10
2.20659e-07
4.1177e-10
2.20381e-07
4.27463e-10
2.20092e-07
4.4229e-10
2.19793e-07
4.56303e-10
2.19484e-07
4.69567e-10
2.19165e-07
4.82128e-10
2.18838e-07
4.94043e-10
2.18503e-07
5.05356e-10
2.1816e-07
5.16108e-10
2.17809e-07
5.26341e-10
2.17451e-07
5.36094e-10
2.17087e-07
5.45404e-10
2.16716e-07
5.543e-10
2.16338e-07
5.6282e-10
2.15955e-07
5.70986e-10
2.15566e-07
5.78829e-10
2.15171e-07
5.86375e-10
2.14772e-07
5.93653e-10
2.14367e-07
6.00674e-10
2.13957e-07
6.07474e-10
2.13542e-07
6.14069e-10
2.13123e-07
6.20477e-10
2.12699e-07
6.26723e-10
2.12271e-07
6.32825e-10
2.11838e-07
6.38795e-10
2.11401e-07
6.44648e-10
2.1096e-07
6.50388e-10
2.10515e-07
6.56026e-10
2.10066e-07
6.61574e-10
2.09613e-07
6.67041e-10
2.09156e-07
6.72435e-10
2.08696e-07
6.77776e-10
2.08231e-07
6.83077e-10
2.07763e-07
6.88345e-10
2.07291e-07
6.93591e-10
2.06816e-07
6.98822e-10
2.06336e-07
7.04043e-10
2.05853e-07
7.09263e-10
2.05366e-07
7.14486e-10
2.04876e-07
7.19708e-10
2.04382e-07
7.24944e-10
2.03884e-07
7.30183e-10
2.03383e-07
7.35431e-10
2.02878e-07
7.40686e-10
2.02369e-07
7.45952e-10
2.01857e-07
7.51223e-10
2.01341e-07
7.56515e-10
2.00821e-07
7.61832e-10
2.00297e-07
7.67196e-10
1.9977e-07
7.72618e-10
1.99239e-07
7.78121e-10
1.98703e-07
7.83722e-10
1.98164e-07
7.89447e-10
1.97621e-07
7.95314e-10
1.97073e-07
8.01349e-10
1.96521e-07
8.07589e-10
1.95964e-07
8.14063e-10
1.95403e-07
8.20836e-10
1.94837e-07
8.27969e-10
1.94266e-07
8.35554e-10
1.93689e-07
8.437e-10
1.93106e-07
8.52557e-10
1.92516e-07
8.62309e-10
1.91919e-07
8.73199e-10
1.91313e-07
8.85537e-10
1.90698e-07
8.99718e-10
1.90072e-07
9.16267e-10
1.89432e-07
9.35866e-10
1.88776e-07
9.59401e-10
1.88101e-07
9.8806e-10
1.87402e-07
1.02341e-09
1.86673e-07
1.06758e-09
1.85906e-07
1.12345e-09
1.85092e-07
1.19503e-09
1.84214e-07
1.28795e-09
1.83255e-07
1.41033e-09
1.82186e-07
1.57424e-09
1.80966e-07
1.79848e-09
1.79536e-07
2.113e-09
1.77802e-07
2.57332e-09
1.75602e-07
3.27427e-09
1.72673e-07
4.47952e-09
1.68298e-07
6.71813e-09
1.10946e-08
1.62235e-07
-4.01069e-10
1.17347e-09
-1.13157e-09
2.27284e-09
-1.86753e-09
2.49781e-09
-2.39835e-09
2.15525e-09
-2.59017e-09
1.45773e-09
-2.36148e-09
5.48588e-10
-1.6665e-09
-4.76651e-10
-4.83552e-10
-1.55617e-09
1.19341e-09
-2.65187e-09
3.36094e-09
-3.74166e-09
6.0103e-09
-4.81373e-09
9.12998e-09
-5.86231e-09
1.27071e-08
-6.88482e-09
1.67278e-08
-7.87996e-09
2.11779e-08
-8.84645e-09
2.60418e-08
-9.78236e-09
3.13033e-08
-1.06848e-08
3.69439e-08
-1.15499e-08
4.29438e-08
-1.23728e-08
4.92804e-08
-1.31481e-08
5.59291e-08
-1.387e-08
6.2863e-08
-1.45326e-08
7.00528e-08
-1.51304e-08
7.74675e-08
-1.56582e-08
8.50742e-08
-1.61118e-08
9.28391e-08
-1.6488e-08
1.00727e-07
-1.67845e-08
1.08704e-07
-1.70003e-08
1.16734e-07
-1.71355e-08
1.24784e-07
-1.71914e-08
1.32821e-07
-1.71703e-08
1.40812e-07
-1.70755e-08
1.48729e-07
-1.69111e-08
1.56543e-07
-1.6682e-08
1.64229e-07
-1.63936e-08
1.71763e-07
-1.60516e-08
1.79126e-07
-1.56619e-08
1.86299e-07
-1.52308e-08
1.93266e-07
-1.47644e-08
2.00014e-07
-1.42686e-08
2.06533e-07
-1.37492e-08
2.12815e-07
-1.32118e-08
2.18852e-07
-1.26616e-08
2.2464e-07
-1.21033e-08
2.30178e-07
-1.15413e-08
2.35465e-07
-1.09796e-08
2.40501e-07
-1.04217e-08
2.45288e-07
-9.87069e-09
2.49831e-07
-9.32925e-09
2.54132e-07
-8.79967e-09
2.58199e-07
-8.28383e-09
2.62035e-07
-7.7833e-09
2.65649e-07
-7.29929e-09
2.69047e-07
-6.83274e-09
2.72237e-07
-6.38432e-09
2.75226e-07
-5.95445e-09
2.78023e-07
-5.54336e-09
2.80635e-07
-5.1511e-09
2.8307e-07
-4.77755e-09
2.85337e-07
-4.42249e-09
2.87442e-07
-4.08556e-09
2.89395e-07
-3.76632e-09
2.91203e-07
-3.46427e-09
2.92872e-07
-3.17884e-09
2.94411e-07
-2.90943e-09
2.95825e-07
-2.65539e-09
2.97123e-07
-2.41608e-09
2.9831e-07
-2.19084e-09
2.99392e-07
-1.97899e-09
3.00376e-07
-1.77987e-09
3.01267e-07
-1.59283e-09
3.0207e-07
-1.41723e-09
3.02791e-07
-1.25243e-09
3.03434e-07
-1.09786e-09
3.04003e-07
-9.529e-10
3.04504e-07
-8.17018e-10
3.04941e-07
-6.89672e-10
3.05316e-07
-5.70351e-10
3.05634e-07
-4.5855e-10
3.05899e-07
-3.53733e-10
3.06113e-07
-2.55464e-10
3.0628e-07
-1.63414e-10
3.06403e-07
-7.72621e-11
3.06483e-07
3.71605e-12
3.06524e-07
7.92185e-11
3.06528e-07
1.50206e-10
3.06498e-07
2.16725e-10
3.06435e-07
2.791e-10
3.06341e-07
3.37605e-10
3.06219e-07
3.92475e-10
3.06069e-07
4.43954e-10
3.05894e-07
4.92253e-10
3.05695e-07
5.37583e-10
3.05474e-07
5.80159e-10
3.05231e-07
6.20178e-10
3.04968e-07
6.57835e-10
3.04687e-07
6.93307e-10
3.04388e-07
7.26759e-10
3.04072e-07
7.58328e-10
3.0374e-07
7.88158e-10
3.03393e-07
8.16365e-10
3.03032e-07
8.43065e-10
3.02658e-07
8.68364e-10
3.02271e-07
8.92361e-10
3.01872e-07
9.15147e-10
3.01461e-07
9.36812e-10
3.0104e-07
9.57431e-10
3.00608e-07
9.77086e-10
3.00167e-07
9.95842e-10
2.99716e-07
1.01376e-09
2.99256e-07
1.03092e-09
2.98787e-07
1.04737e-09
2.9831e-07
1.06316e-09
2.97826e-07
1.07835e-09
2.97333e-07
1.09298e-09
2.96834e-07
1.10711e-09
2.96327e-07
1.12078e-09
2.95813e-07
1.13403e-09
2.95293e-07
1.14689e-09
2.94767e-07
1.15942e-09
2.94234e-07
1.17163e-09
2.93695e-07
1.18357e-09
2.9315e-07
1.19524e-09
2.92599e-07
1.20669e-09
2.92043e-07
1.21792e-09
2.91481e-07
1.22897e-09
2.90914e-07
1.23986e-09
2.90341e-07
1.2506e-09
2.89763e-07
1.26123e-09
2.89179e-07
1.27176e-09
2.88591e-07
1.2822e-09
2.87997e-07
1.29258e-09
2.87398e-07
1.30291e-09
2.86794e-07
1.3132e-09
2.86185e-07
1.32345e-09
2.85571e-07
1.3337e-09
2.84952e-07
1.34393e-09
2.84328e-07
1.35417e-09
2.83699e-07
1.3644e-09
2.83065e-07
1.37466e-09
2.82426e-07
1.38493e-09
2.81782e-07
1.39523e-09
2.81133e-07
1.40558e-09
2.80479e-07
1.41599e-09
2.7982e-07
1.42648e-09
2.79155e-07
1.43708e-09
2.78486e-07
1.44781e-09
2.77811e-07
1.45872e-09
2.7713e-07
1.46984e-09
2.76444e-07
1.4812e-09
2.75753e-07
1.49286e-09
2.75056e-07
1.50487e-09
2.74352e-07
1.51732e-09
2.73643e-07
1.53029e-09
2.72927e-07
1.54392e-09
2.72204e-07
1.55837e-09
2.71474e-07
1.57384e-09
2.70736e-07
1.59059e-09
2.69989e-07
1.60896e-09
2.69233e-07
1.6294e-09
2.68466e-07
1.65244e-09
2.67687e-07
1.67882e-09
2.66894e-07
1.70949e-09
2.66084e-07
1.74565e-09
2.65255e-07
1.78894e-09
2.64401e-07
1.84146e-09
2.63518e-07
1.90606e-09
2.626e-07
1.98655e-09
2.61635e-07
2.08812e-09
2.60612e-07
2.21792e-09
2.59514e-07
2.38599e-09
2.58317e-07
2.60676e-09
2.5699e-07
2.90146e-09
2.55486e-07
3.30261e-09
2.53737e-07
3.86186e-09
2.51643e-07
4.66775e-09
2.49037e-07
5.88023e-09
2.45709e-07
7.80727e-09
2.41121e-07
1.1306e-08
1.65397e-08
2.35676e-07
-3.76062e-10
1.54953e-09
-1.03754e-09
2.93432e-09
-1.66145e-09
3.12173e-09
-2.03804e-09
2.53184e-09
-2.03486e-09
1.45455e-09
-1.57066e-09
8.43933e-11
-5.99713e-10
-1.4476e-09
9.00375e-10
-3.05626e-09
2.93722e-09
-4.68871e-09
5.50946e-09
-6.3139e-09
8.61053e-09
-7.9148e-09
1.22309e-08
-9.4827e-09
1.63594e-08
-1.10133e-08
2.09834e-08
-1.2504e-08
2.60891e-08
-1.39522e-08
3.1661e-08
-1.53543e-08
3.76817e-08
-1.67054e-08
4.4131e-08
-1.79993e-08
5.09865e-08
-1.92283e-08
5.82225e-08
-2.03841e-08
6.58104e-08
-2.1458e-08
7.37189e-08
-2.24412e-08
8.19141e-08
-2.33256e-08
9.036e-08
-2.4104e-08
9.90187e-08
-2.47706e-08
1.07852e-07
-2.53208e-08
1.16819e-07
-2.57519e-08
1.25882e-07
-2.6063e-08
1.35001e-07
-2.62546e-08
1.44138e-07
-2.63291e-08
1.53258e-07
-2.62903e-08
1.62327e-07
-2.61435e-08
1.7131e-07
-2.5895e-08
1.8018e-07
-2.55519e-08
1.88909e-07
-2.51224e-08
1.97472e-07
-2.46147e-08
2.05848e-07
-2.40377e-08
2.14017e-07
-2.34002e-08
2.21964e-07
-2.27111e-08
2.29674e-07
-2.19789e-08
2.37137e-07
-2.12118e-08
2.44343e-07
-2.04179e-08
2.51286e-07
-1.96044e-08
2.57961e-07
-1.87781e-08
2.64365e-07
-1.79454e-08
2.70497e-07
-1.71118e-08
2.76358e-07
-1.62825e-08
2.81949e-07
-1.54619e-08
2.87273e-07
-1.46538e-08
2.92335e-07
-1.38616e-08
2.9714e-07
-1.30882e-08
3.01692e-07
-1.23357e-08
3.05999e-07
-1.16062e-08
3.10067e-07
-1.09011e-08
3.13905e-07
-1.02214e-08
3.17518e-07
-9.5679e-09
3.20916e-07
-8.94109e-09
3.24106e-07
-8.34116e-09
3.27096e-07
-7.76809e-09
3.29895e-07
-7.22167e-09
3.32511e-07
-6.70152e-09
3.34952e-07
-6.20712e-09
3.37226e-07
-5.73786e-09
3.3934e-07
-5.29302e-09
3.41302e-07
-4.87183e-09
3.4312e-07
-4.47342e-09
3.44801e-07
-4.09696e-09
3.46352e-07
-3.74152e-09
3.47779e-07
-3.40621e-09
3.49089e-07
-3.09011e-09
3.50289e-07
-2.7923e-09
3.51384e-07
-2.51189e-09
3.52379e-07
-2.248e-09
3.53281e-07
-1.99977e-09
3.54095e-07
-1.76636e-09
3.54824e-07
-1.54696e-09
3.55476e-07
-1.34081e-09
3.56052e-07
-1.14713e-09
3.56559e-07
-9.65208e-10
3.57e-07
-7.94332e-10
3.57378e-07
-6.3385e-10
3.57698e-07
-4.83157e-10
3.57962e-07
-3.41692e-10
3.58175e-07
-2.08857e-10
3.58338e-07
-8.41923e-11
3.58455e-07
3.29222e-11
3.58529e-07
1.42933e-10
3.58562e-07
2.46247e-10
3.58556e-07
3.43302e-10
3.58514e-07
4.3448e-10
3.58438e-07
5.20148e-10
3.5833e-07
6.00653e-10
3.58191e-07
6.76328e-10
3.58024e-07
7.47492e-10
3.57829e-07
8.14444e-10
3.5761e-07
8.77485e-10
3.57366e-07
9.36887e-10
3.571e-07
9.929e-10
3.56813e-07
1.04575e-09
3.56505e-07
1.09568e-09
3.56179e-07
1.14287e-09
3.55834e-07
1.18752e-09
3.55473e-07
1.22981e-09
3.55095e-07
1.26988e-09
3.54702e-07
1.30791e-09
3.54295e-07
1.34403e-09
3.53874e-07
1.37837e-09
3.5344e-07
1.41106e-09
3.52994e-07
1.44222e-09
3.52536e-07
1.47196e-09
3.52066e-07
1.50037e-09
3.51586e-07
1.52757e-09
3.51096e-07
1.55364e-09
3.50595e-07
1.57865e-09
3.50086e-07
1.60271e-09
3.49567e-07
1.6259e-09
3.49039e-07
1.64826e-09
3.48503e-07
1.66988e-09
3.47959e-07
1.69084e-09
3.47408e-07
1.71118e-09
3.46848e-07
1.73096e-09
3.46282e-07
1.75025e-09
3.45708e-07
1.76906e-09
3.45127e-07
1.78746e-09
3.4454e-07
1.80549e-09
3.43945e-07
1.82317e-09
3.43345e-07
1.84056e-09
3.42738e-07
1.85768e-09
3.42124e-07
1.87458e-09
3.41505e-07
1.89127e-09
3.40879e-07