/*--------------------------------*- C++ -*----------------------------------*\
  =========                 |
  \\      /  F ield         | OpenFOAM: The Open Source CFD Toolbox
   \\    /   O peration     | Website:  https://openfoam.org
    \\  /    A nd           | Version:  8
     \\/     M anipulation  |
\*---------------------------------------------------------------------------*/
FoamFile
{
    version     2.0;
    format      ascii;
    class       volVectorField;
    location    "0.1";
    object      U;
}
// * * * * * * * * * * * * * * * * * * * * * * * * * * * * * * * * * * * * * //

dimensions      [0 1 -1 0 0 0 0];

internalField   nonuniform List<vector> 
12225
(
(0.316803 0.0431636 0)
(0.19594 0.0106037 0)
(0.124869 0.000876845 0)
(0.0997395 0.000268116 0)
(0.0922221 0.000243653 0)
(0.0870927 0.000159494 0)
(0.0838127 7.20745e-05 0)
(0.0822229 9.63648e-06 0)
(0.081841 -4.12992e-05 0)
(0.0824378 -9.41417e-05 0)
(0.0839524 -0.000153323 0)
(0.0864229 -0.000226148 0)
(0.0899958 -0.00032496 0)
(0.094977 -0.000472789 0)
(0.102026 -0.000738228 0)
(0.112399 -0.00126766 0)
(0.131509 -0.00345668 0)
(0.160206 -0.0237727 0)
(0.609737 0.11438 0)
(0.488375 0.0535299 0)
(0.359904 0.0163823 0)
(0.291989 0.00674639 0)
(0.265287 0.00355462 0)
(0.249714 0.00223094 0)
(0.239748 0.00129893 0)
(0.23436 0.000555396 0)
(0.232377 -6.23162e-05 0)
(0.233124 -0.000651952 0)
(0.23635 -0.00127892 0)
(0.242068 -0.00201416 0)
(0.25055 -0.0029598 0)
(0.262404 -0.00429955 0)
(0.278875 -0.00643924 0)
(0.302075 -0.0104609 0)
(0.338 -0.0195391 0)
(0.386666 -0.0537424 0)
(0.735435 0.137334 0)
(0.686945 0.0907593 0)
(0.567477 0.0407602 0)
(0.476478 0.0205717 0)
(0.430776 0.0112922 0)
(0.404496 0.0068773 0)
(0.387776 0.0041573 0)
(0.378092 0.00206164 0)
(0.373718 0.000304633 0)
(0.373585 -0.00133302 0)
(0.377217 -0.00303053 0)
(0.384517 -0.00496699 0)
(0.395728 -0.00737978 0)
(0.411477 -0.0106627 0)
(0.433009 -0.0155782 0)
(0.462127 -0.0238816 0)
(0.502507 -0.0395786 0)
(0.551457 -0.0781109 0)
(0.777932 0.127577 0)
(0.797699 0.111693 0)
(0.724037 0.0656867 0)
(0.637951 0.0394116 0)
(0.582341 0.0235244 0)
(0.547652 0.0145294 0)
(0.525032 0.00898745 0)
(0.511177 0.00484727 0)
(0.504026 0.001382 0)
(0.502242 -0.00180619 0)
(0.505156 -0.00504693 0)
(0.512516 -0.00865591 0)
(0.524427 -0.0130248 0)
(0.541328 -0.0187531 0)
(0.564079 -0.0268801 0)
(0.593621 -0.0394669 0)
(0.631192 -0.0602718 0)
(0.672212 -0.0986293 0)
(0.783884 0.10624 0)
(0.842265 0.11676 0)
(0.820346 0.0832508 0)
(0.760352 0.0575904 0)
(0.709338 0.0379502 0)
(0.67272 0.0245749 0)
(0.64706 0.0156733 0)
(0.630307 0.00898886 0)
(0.620769 0.0033905 0)
(0.617136 -0.00173194 0)
(0.618661 -0.00686089 0)
(0.624979 -0.0124497 0)
(0.636018 -0.0190287 0)
(0.651936 -0.027344 0)
(0.673077 -0.0385559 0)
(0.699493 -0.054638 0)
(0.730772 -0.0784974 0)
(0.761799 -0.11509 0)
(0.777485 0.0836506 0)
(0.846443 0.110415 0)
(0.863528 0.0905842 0)
(0.836377 0.0702134 0)
(0.801735 0.0509054 0)
(0.771648 0.0351287 0)
(0.747911 0.0233727 0)
(0.731017 0.0141393 0)
(0.720537 0.00626418 0)
(0.715669 -0.000974485 0)
(0.715815 -0.00816444 0)
(0.720607 -0.0158633 0)
(0.729853 -0.0246967 0)
(0.743452 -0.0354747 0)
(0.761286 -0.0493258 0)
(0.782755 -0.0678932 0)
(0.806602 -0.0931225 0)
(0.82815 -0.127331 0)
(0.76942 0.0636514 0)
(0.831842 0.0975631 0)
(0.869977 0.0888537 0)
(0.870387 0.075197 0)
(0.856079 0.0592181 0)
(0.838624 0.0436174 0)
(0.821971 0.030442 0)
(0.808568 0.0193313 0)
(0.79949 0.00947777 0)
(0.794808 0.000247853 0)
(0.794311 -0.00893818 0)
(0.797792 -0.0186704 0)
(0.805048 -0.029603 0)
(0.815818 -0.0425246 0)
(0.829681 -0.0584203 0)
(0.845695 -0.0785156 0)
(0.862334 -0.103936 0)
(0.875802 -0.13552 0)
(0.763106 0.0474403 0)
(0.812365 0.0823418 0)
(0.856918 0.0811455 0)
(0.874438 0.0732221 0)
(0.877239 0.0615733 0)
(0.873627 0.0480331 0)
(0.866932 0.0350643 0)
(0.859968 0.0231885 0)
(0.854697 0.0120787 0)
(0.851979 0.00133296 0)
(0.852069 -0.00950191 0)
(0.855018 -0.0209563 0)
(0.860717 -0.0336337 0)
(0.868874 -0.0482242 0)
(0.878946 -0.0655052 0)
(0.889918 -0.0862953 0)
(0.900349 -0.111116 0)
(0.907404 -0.140037 0)
(0.758866 0.0349978 0)
(0.794753 0.0674242 0)
(0.837181 0.0706072 0)
(0.862099 0.0665217 0)
(0.875469 0.0586144 0)
(0.882718 0.0477865 0)
(0.885569 0.0361185 0)
(0.885973 0.0245244 0)
(0.885879 0.0130335 0)
(0.886481 0.00147342 0)
(0.888347 -0.0104336 0)
(0.891737 -0.0230911 0)
(0.89667 -0.036986 0)
(0.902911 -0.052655 0)
(0.909941 -0.0706439 0)
(0.916855 -0.0914235 0)
(0.922473 -0.115114 0)
(0.924832 -0.141427 0)
(0.756164 0.0257256 0)
(0.78106 0.0540579 0)
(0.817925 0.0594419 0)
(0.843932 0.0575011 0)
(0.861732 0.0520949 0)
(0.875197 0.0436451 0)
(0.884827 0.0335986 0)
(0.891402 0.0228874 0)
(0.896286 0.0117058 0)
(0.900536 1.63259e-05 0)
(0.904766 -0.0123202 0)
(0.909297 -0.0255643 0)
(0.914219 -0.0400575 0)
(0.91937 -0.0561639 0)
(0.924331 -0.0742091 0)
(0.928393 -0.0943934 0)
(0.930689 -0.116595 0)
(0.929971 -0.140389 0)
(0.754454 0.0188774 0)
(0.771115 0.0425896 0)
(0.80191 0.0487804 0)
(0.826014 0.0478906 0)
(0.844294 0.0438525 0)
(0.859956 0.0370356 0)
(0.873025 0.0283689 0)
(0.883436 0.0186489 0)
(0.89188 0.00810964 0)
(0.899057 -0.0032439 0)
(0.905424 -0.0154787 0)
(0.911221 -0.0287422 0)
(0.916521 -0.0432413 0)
(0.921206 -0.0591833 0)
(0.92496 -0.0767123 0)
(0.927278 -0.0958385 0)
(0.927575 -0.116313 0)
(0.925143 -0.137686 0)
(0.753468 0.0141513 0)
(0.764668 0.0336659 0)
(0.790505 0.0397533 0)
(0.812033 0.0393154 0)
(0.829108 0.0359154 0)
(0.844578 0.0299929 0)
(0.858451 0.0222067 0)
(0.870297 0.0132361 0)
(0.880359 0.00331283 0)
(0.889048 -0.00755705 0)
(0.896629 -0.0194119 0)
(0.903219 -0.0323319 0)
(0.908823 -0.0464289 0)
(0.913326 -0.0617979 0)
(0.916479 -0.0784623 0)
(0.917926 -0.0963222 0)
(0.917277 -0.115082 0)
(0.914166 -0.134321 0)
(0.752811 0.0105174 0)
(0.759963 0.0260742 0)
(0.781671 0.031501 0)
(0.800686 0.0312368 0)
(0.816098 0.0281657 0)
(0.830447 0.0227745 0)
(0.843893 0.0155867 0)
(0.855882 0.0071899 0)
(0.866383 -0.00219202 0)
(0.875608 -0.0125487 0)
(0.883664 -0.023905 0)
(0.890552 -0.0362957 0)
(0.896211 -0.0497628 0)
(0.900513 -0.0643212 0)
(0.903258 -0.0799145 0)
(0.9042 -0.0963813 0)
(0.903091 -0.11342 0)
(0.899787 -0.130654 0)
(0.752312 0.00738897 0)
(0.756118 0.0188021 0)
(0.774068 0.0230718 0)
(0.790542 0.022676 0)
(0.804058 0.0196947 0)
(0.816815 0.0146274 0)
(0.829118 0.00789133 0)
(0.840391 -3.01168e-05 0)
(0.850444 -0.00891084 0)
(0.85936 -0.0187162 0)
(0.867165 -0.0294494 0)
(0.873788 -0.0411092 0)
(0.879118 -0.0536855 0)
(0.883019 -0.0671359 0)
(0.885335 -0.0813551 0)
(0.885906 -0.0961567 0)
(0.884592 -0.111263 0)
(0.881388 -0.126357 0)
(0.751941 0.00467269 0)
(0.753134 0.0120181 0)
(0.767863 0.014699 0)
(0.781904 0.0138248 0)
(0.793505 0.0107087 0)
(0.80455 0.00579917 0)
(0.81541 -0.000584627 0)
(0.825514 -0.00807627 0)
(0.834566 -0.0164612 0)
(0.842574 -0.0256717 0)
(0.849543 -0.0356794 0)
(0.855387 -0.0464495 0)
(0.859988 -0.0579324 0)
(0.863228 -0.0700493 0)
(0.864997 -0.0826745 0)
(0.865205 -0.0956276 0)
(0.863784 -0.108676 0)
(0.860802 -0.121573 0)
(0.751678 0.00231596 0)
(0.750951 0.00581044 0)
(0.763098 0.00652492 0)
(0.774948 0.00480831 0)
(0.784732 0.00134697 0)
(0.79412 -0.0035392 0)
(0.803497 -0.0096269 0)
(0.812291 -0.0166685 0)
(0.820129 -0.0244884 0)
(0.82697 -0.033 0)
(0.83282 -0.0421477 0)
(0.837614 -0.0518704 0)
(0.841259 -0.0620926 0)
(0.843678 -0.0727178 0)
(0.84481 -0.083621 0)
(0.844623 -0.0946465 0)
(0.843104 -0.105615 0)
(0.840341 -0.116349 0)
(0.751502 0.000237577 0)
(0.749469 0.000118524 0)
(0.759734 -0.00140297 0)
(0.7698 -0.00429225 0)
(0.777986 -0.00829326 0)
(0.785881 -0.0132594 0)
(0.79387 -0.0190761 0)
(0.801384 -0.0256067 0)
(0.808008 -0.0327357 0)
(0.81367 -0.0403862 0)
(0.818383 -0.0484956 0)
(0.822113 -0.0569939 0)
(0.824805 -0.0657987 0)
(0.826425 -0.0748144 0)
(0.82696 -0.0839309 0)
(0.826423 -0.0930252 0)
(0.824835 -0.101968 0)
(0.822278 -0.110637 0)
(0.751394 -0.00170149 0)
(0.748608 -0.00531412 0)
(0.757759 -0.00925118 0)
(0.766662 -0.0135545 0)
(0.773689 -0.018235 0)
(0.78042 -0.023331 0)
(0.787269 -0.0288533 0)
(0.793689 -0.0347731 0)
(0.799256 -0.0410514 0)
(0.803895 -0.0476511 0)
(0.807637 -0.0545289 0)
(0.810483 -0.0616286 0)
(0.812417 -0.0688809 0)
(0.813436 -0.0762065 0)
(0.813563 -0.0835185 0)
(0.812834 -0.0907252 0)
(0.811289 -0.0977357 0)
(0.808989 -0.104468 0)
(0.751372 -0.00379966 0)
(0.748495 -0.0111822 0)
(0.757546 -0.0177222 0)
(0.766276 -0.0235151 0)
(0.772963 -0.0288491 0)
(0.77919 -0.0339804 0)
(0.785439 -0.0390615 0)
(0.791218 -0.0441842 0)
(0.796131 -0.0494081 0)
(0.800131 -0.0547611 0)
(0.803287 -0.0602397 0)
(0.805632 -0.0658154 0)
(0.807173 -0.0714414 0)
(0.807928 -0.0770574 0)
(0.807929 -0.0825951 0)
(0.807212 -0.0879838 0)
(0.805819 -0.0931557 0)
(0.803782 -0.0980537 0)
(0.75151 -0.00608845 0)
(0.749664 -0.0174994 0)
(0.760221 -0.0265749 0)
(0.77025 -0.0335432 0)
(0.77778 -0.0391867 0)
(0.784497 -0.0440745 0)
(0.791019 -0.0485063 0)
(0.796921 -0.0527007 0)
(0.801866 -0.0568281 0)
(0.805856 -0.06098 0)
(0.808989 -0.0651792 0)
(0.811301 -0.0694075 0)
(0.812794 -0.0736217 0)
(0.813473 -0.0777633 0)
(0.813361 -0.081768 0)
(0.812491 -0.0855742 0)
(0.810898 -0.089128 0)
(0.808617 -0.0923943 0)
(0.751755 -0.0087458 0)
(0.751862 -0.0245243 0)
(0.765252 -0.0357338 0)
(0.777681 -0.0431994 0)
(0.786843 -0.0486533 0)
(0.794751 -0.053024 0)
(0.802222 -0.0566971 0)
(0.808837 -0.0599933 0)
(0.814255 -0.0631565 0)
(0.818492 -0.066285 0)
(0.821632 -0.0693808 0)
(0.823691 -0.0724092 0)
(0.82466 -0.0753219 0)
(0.824562 -0.078066 0)
(0.823448 -0.0805926 0)
(0.82139 -0.0828642 0)
(0.818465 -0.0848546 0)
(0.814771 -0.0865637 0)
(0.752239 -0.0124937 0)
(0.755966 -0.0336826 0)
(0.774139 -0.0465423 0)
(0.790211 -0.0538066 0)
(0.801769 -0.0587113 0)
(0.811469 -0.0623413 0)
(0.82019 -0.0650416 0)
(0.827332 -0.0672177 0)
(0.832517 -0.0691435 0)
(0.835822 -0.0708905 0)
(0.8374 -0.072453 0)
(0.837353 -0.0738217 0)
(0.835791 -0.074988 0)
(0.832867 -0.075943 0)
(0.828756 -0.0766815 0)
(0.823638 -0.0772062 0)
(0.817675 -0.077523 0)
(0.811071 -0.0776627 0)
(0.753195 -0.0181883 0)
(0.763389 -0.0460689 0)
(0.788964 -0.0596114 0)
(0.809748 -0.0658974 0)
(0.823765 -0.0697914 0)
(0.83445 -0.0720145 0)
(0.842504 -0.0728746 0)
(0.847273 -0.0729857 0)
(0.848744 -0.0727134 0)
(0.847433 -0.0721799 0)
(0.843849 -0.0714584 0)
(0.838395 -0.0706184 0)
(0.831436 -0.0697064 0)
(0.823314 -0.0687469 0)
(0.814328 -0.0677538 0)
(0.804737 -0.0667368 0)
(0.794729 -0.0657001 0)
(0.784571 -0.0646689 0)
(0.755119 -0.0271613 0)
(0.776527 -0.0627502 0)
(0.812073 -0.075196 0)
(0.83634 -0.0791821 0)
(0.849101 -0.0805077 0)
(0.855294 -0.0793432 0)
(0.856188 -0.0765218 0)
(0.852123 -0.0731514 0)
(0.844233 -0.0697404 0)
(0.833804 -0.0664605 0)
(0.821756 -0.0634147 0)
(0.808706 -0.0606573 0)
(0.795107 -0.0581889 0)
(0.7813 -0.0559818 0)
(0.767527 -0.0540012 0)
(0.753965 -0.052214 0)
(0.740701 -0.0505876 0)
(0.72795 -0.0491135 0)
(0.759064 -0.0413571 0)
(0.797842 -0.0839791 0)
(0.841425 -0.0916594 0)
(0.860084 -0.0901904 0)
(0.860143 -0.0855923 0)
(0.850958 -0.078433 0)
(0.836039 -0.0707281 0)
(0.817443 -0.0638215 0)
(0.797239 -0.0579476 0)
(0.776839 -0.0530192 0)
(0.756925 -0.0489316 0)
(0.737801 -0.0455571 0)
(0.719612 -0.042756 0)
(0.702414 -0.040406 0)
(0.686204 -0.0384107 0)
(0.670957 -0.0366948 0)
(0.656599 -0.0351993 0)
(0.643233 -0.0338916 0)
(0.766821 -0.0634047 0)
(0.824064 -0.107338 0)
(0.859928 -0.102836 0)
(0.852488 -0.0910098 0)
(0.824528 -0.0778373 0)
(0.791909 -0.0648281 0)
(0.759143 -0.0542321 0)
(0.727978 -0.0463285 0)
(0.699486 -0.0404084 0)
(0.673871 -0.0358951 0)
(0.650851 -0.0324212 0)
(0.630077 -0.0297093 0)
(0.611244 -0.02755 0)
(0.594092 -0.0257969 0)
(0.578398 -0.024348 0)
(0.563985 -0.0231294 0)
(0.550673 -0.0220879 0)
(0.538486 -0.0211913 0)
(0.777362 -0.0946965 0)
(0.833424 -0.125105 0)
(0.828556 -0.0985984 0)
(0.774301 -0.0744893 0)
(0.715033 -0.0556691 0)
(0.66562 -0.0418927 0)
(0.624908 -0.0330132 0)
(0.590947 -0.0272968 0)
(0.562489 -0.0233288 0)
(0.538324 -0.020447 0)
(0.517444 -0.0183076 0)
(0.499136 -0.0166778 0)
(0.482895 -0.0154024 0)
(0.468345 -0.0143814 0)
(0.455202 -0.0135472 0)
(0.443251 -0.0128513 0)
(0.432299 -0.0122617 0)
(0.422341 -0.0117568 0)
(0.771595 -0.124863 0)
(0.776565 -0.121937 0)
(0.701992 -0.0722786 0)
(0.605845 -0.0438305 0)
(0.536406 -0.0282404 0)
(0.489971 -0.0198134 0)
(0.455325 -0.0153847 0)
(0.427892 -0.0126669 0)
(0.405674 -0.0107658 0)
(0.387209 -0.00940336 0)
(0.371478 -0.00840927 0)
(0.357822 -0.00765911 0)
(0.345792 -0.0070758 0)
(0.335067 -0.00661147 0)
(0.325411 -0.00623356 0)
(0.316651 -0.00591832 0)
(0.308636 -0.00565258 0)
(0.30136 -0.0054244 0)
(0.686266 -0.118601 0)
(0.5915 -0.0827018 0)
(0.466875 -0.0325662 0)
(0.372419 -0.015005 0)
(0.324165 -0.00862429 0)
(0.295542 -0.0061208 0)
(0.273983 -0.00489874 0)
(0.256988 -0.00404033 0)
(0.243391 -0.00342276 0)
(0.232159 -0.00299489 0)
(0.22261 -0.00268717 0)
(0.214325 -0.00245483 0)
(0.207026 -0.00227431 0)
(0.200512 -0.00213071 0)
(0.194639 -0.00201361 0)
(0.189305 -0.00191508 0)
(0.184418 -0.00183273 0)
(0.179978 -0.00176006 0)
(0.391277 -0.0464279 0)
(0.248141 -0.0180722 0)
(0.166028 -0.00251178 0)
(0.12476 -0.000656508 0)
(0.110051 -0.000532755 0)
(0.100904 -0.000462766 0)
(0.0934835 -0.000383328 0)
(0.0876627 -0.000311946 0)
(0.083041 -0.000265763 0)
(0.0792152 -0.000236546 0)
(0.0759488 -0.000215351 0)
(0.0731035 -0.000199022 0)
(0.0705864 -0.00018627 0)
(0.0683314 -0.000176017 0)
(0.066291 -0.000167524 0)
(0.0644321 -0.000159829 0)
(0.0627236 -0.000154698 0)
(0.0611705 -0.0001476 0)
(-0.000112229 0.000262023 1.96086e-20)
(-0.000578377 0.000526423 -2.45917e-20)
(-0.00125005 0.000633212 0)
(-0.00198606 0.000651115 0)
(-0.00266391 0.000621663 0)
(-0.00321927 0.000566212 2.45708e-20)
(-0.00362078 0.00049691 0)
(-0.00385285 0.000420789 0)
(-0.00390872 0.000341585 0)
(-0.00378668 0.000260988 0)
(-0.00348756 0.000179702 -2.46444e-20)
(-0.00301331 9.79666e-05 0)
(-0.00236606 1.59152e-05 0)
(-0.0015483 -6.62621e-05 0)
(-0.000562263 -0.000148289 0)
(0.000589225 -0.000229731 -2.46298e-20)
(0.00190284 -0.000310033 0)
(0.0033746 -0.000388549 0)
(0.00499947 -0.000464534 0)
(0.0067713 -0.000537186 0)
(0.00868266 -0.000605688 0)
(0.0107248 -0.000669247 0)
(0.0128877 -0.000727128 0)
(0.01516 -0.000778691 -2.41307e-20)
(0.0175295 -0.000823409 2.4046e-20)
(0.0199826 -0.000860892 -2.39572e-20)
(0.0225056 -0.000890897 -2.38644e-20)
(0.0250837 -0.000913332 0)
(0.0277024 -0.000928253 0)
(0.0303468 -0.000935856 2.35662e-20)
(0.0330025 -0.000936462 2.34612e-20)
(0.0356554 -0.000930502 0)
(0.0382923 -0.000918495 0)
(0.0409006 -0.000901029 2.31335e-20)
(0.0434688 -0.000878738 0)
(0.0459865 -0.00085228 0)
(0.0484443 -0.000822322 -2.27925e-20)
(0.0508342 -0.000789523 0)
(0.0531493 -0.000754515 -2.25607e-20)
(0.0553837 -0.000717897 -4.48878e-20)
(0.0575331 -0.000680221 0)
(0.0595939 -0.000641993 0)
(0.0615637 -0.00060366 0)
(0.0634411 -0.000565616 0)
(0.0652254 -0.000528197 0)
(0.0669168 -0.000491688 -4.34764e-20)
(0.0685161 -0.000456318 -4.32406e-20)
(0.0700249 -0.000422271 -4.30048e-20)
(0.0714449 -0.000389687 0)
(0.0727786 -0.000358665 4.25334e-20)
(0.0740286 -0.000329271 0)
(0.075198 -0.00030154 -4.20622e-20)
(0.0762898 -0.000275481 -4.18265e-20)
(0.0773073 -0.000251081 0)
(0.0782541 -0.000228312 0)
(0.0791334 -0.000207129 0)
(0.0799487 -0.000187478 -4.08829e-20)
(0.0807035 -0.000169294 0)
(0.081401 -0.000152508 0)
(0.0820447 -0.000137047 0)
(0.0826376 -0.000122837 0)
(0.0831828 -0.0001098 0)
(0.0836833 -9.78616e-05 0)
(0.084142 -8.69467e-05 0)
(0.0845615 -7.69832e-05 0)
(0.0849444 -6.79009e-05 3.87425e-20)
(0.0852932 -5.96331e-05 0)
(0.0856101 -5.21157e-05 0)
(0.0858973 -4.52881e-05 -3.802e-20)
(0.0861569 -3.90925e-05 -3.77779e-20)
(0.0863908 -3.34744e-05 0)
(0.0866008 -2.83816e-05 3.72917e-20)
(0.0867885 -2.37638e-05 -3.70476e-20)
(0.0869555 -1.95708e-05 0)
(0.0871034 -1.57512e-05 3.65573e-20)
(0.0872334 -1.22457e-05 0)
(0.0873469 -8.97551e-06 0)
(0.087445 -5.82144e-06 -3.58166e-20)
(0.0875293 -2.79266e-06 0)
(0.0876008 -6.22958e-07 3.5319e-20)
(0.0876596 5.5414e-07 0)
(0.0877065 1.66773e-06 -3.48181e-20)
(0.0877428 2.86569e-06 -3.45666e-20)
(0.0877694 4.05613e-06 -3.43146e-20)
(0.087787 5.16033e-06 -6.81238e-20)
(0.0877961 6.18092e-06 6.76173e-20)
(0.0877975 7.11371e-06 0)
(0.0877915 7.95835e-06 0)
(0.0877787 8.71521e-06 0)
(0.0877597 9.38195e-06 6.55794e-20)
(0.0877348 9.95492e-06 6.50673e-20)
(0.0877046 1.0435e-05 -6.45541e-20)
(0.0876694 1.08311e-05 0)
(0.0876296 1.11586e-05 6.35248e-20)
(0.0875856 1.14345e-05 6.30087e-20)
(0.0875377 1.16735e-05 6.24918e-20)
(0.0874861 1.18848e-05 0)
(0.087431 1.20731e-05 0)
(0.0873728 1.22401e-05 0)
(0.0873114 1.23864e-05 6.04155e-20)
(0.0872473 1.25124e-05 0)
(0.0871804 1.2619e-05 0)
(0.087111 1.27075e-05 -5.88506e-20)
(0.0870392 1.27794e-05 0)
(0.0869651 1.28359e-05 0)
(0.0868889 1.28785e-05 -5.72805e-20)
(0.0868107 1.29082e-05 0)
(0.0867306 1.29262e-05 0)
(0.0866487 1.29334e-05 5.57066e-20)
(0.0865651 1.29309e-05 5.51813e-20)
(0.0864799 1.29195e-05 0)
(0.0863931 1.28999e-05 -5.41301e-20)
(0.0863049 1.2873e-05 0)
(0.0862153 1.28395e-05 5.30784e-20)
(0.0861244 1.28001e-05 0)
(0.0860322 1.27556e-05 5.20265e-20)
(0.0859389 1.27074e-05 5.15006e-20)
(0.0858443 1.26566e-05 0)
(0.0857486 1.26048e-05 0)
(0.0856519 1.25529e-05 0)
(0.085554 1.25015e-05 0)
(0.0854551 1.24498e-05 0)
(0.0853552 1.23968e-05 0)
(0.0852543 1.23414e-05 0)
(0.0851525 1.22833e-05 4.73005e-20)
(0.0850497 1.22234e-05 -4.6777e-20)
(0.084946 1.21631e-05 0)
(0.0848413 1.21041e-05 0)
(0.0847358 1.20477e-05 0)
(0.0846293 1.19949e-05 0)
(0.084522 1.19462e-05 -8.83346e-20)
(0.0844137 1.19017e-05 0)
(0.0843045 1.18614e-05 8.62554e-20)
(0.0841943 1.18253e-05 -8.52181e-20)
(0.0840832 1.1793e-05 0)
(0.0839712 1.17639e-05 0)
(0.0838581 1.1737e-05 0)
(0.0837441 1.17109e-05 8.10848e-20)
(0.0836291 1.16841e-05 8.0056e-20)
(0.0835131 1.16553e-05 0)
(0.0833962 1.16232e-05 7.80042e-20)
(0.0832782 1.15876e-05 7.69814e-20)
(0.0831593 1.1549e-05 -7.59608e-20)
(0.0830394 1.15088e-05 0)
(0.0829185 1.14692e-05 0)
(0.0827967 1.14329e-05 -7.29122e-20)
(0.0826738 1.1402e-05 0)
(0.0825498 1.13785e-05 0)
(0.0824248 1.13637e-05 0)
(0.0822986 1.13583e-05 0)
(0.0821712 1.1363e-05 6.78794e-20)
(0.0820425 1.13786e-05 6.68806e-20)
(0.0819124 1.14063e-05 0)
(0.0817809 1.14485e-05 6.48911e-20)
(0.0816478 1.15078e-05 0)
(0.081513 1.15884e-05 0)
(0.0813763 1.16955e-05 6.19284e-20)
(0.0812375 1.18361e-05 0)
(0.0810963 1.20188e-05 5.99684e-20)
(0.0809524 1.22549e-05 0)
(0.0808053 1.25588e-05 0)
(0.0806545 1.29488e-05 5.70524e-20)
(0.0804993 1.34487e-05 0)
(0.0803387 1.40891e-05 5.51256e-20)
(0.0801715 1.49099e-05 0)
(0.0799962 1.59638e-05 0)
(0.0798107 1.73202e-05 0)
(0.0796124 1.90723e-05 -5.1318e-20)
(0.0793978 2.13463e-05 0)
(0.0791622 2.43169e-05 4.94409e-20)
(0.0788991 2.823e-05 0)
(0.0785999 3.34447e-05 0)
(0.0782524 4.049e-05 0)
(0.077839 5.02668e-05 0)
(0.0773342 6.39936e-05 0)
(0.0766945 8.55103e-05 0)
(0.0758667 0.000115333 0)
(0.0746383 0.000203719 -8.4492e-20)
(0.0732579 0.000246206 0)
(0.0677488 0.00111828 0)
(-0.00012839 0.00106106 -6.15392e-20)
(-0.000758649 0.00215469 7.81e-20)
(-0.00158469 0.00251295 0)
(-0.00240556 0.00240231 -5.20794e-20)
(-0.00305136 0.00201109 0)
(-0.0034258 0.00146282 -2.61052e-20)
(-0.00347797 0.000836553 5.22654e-20)
(-0.00318239 0.000179682 5.23472e-20)
(-0.00252903 -0.000480805 0)
(-0.00151708 -0.00113052 5.23708e-20)
(-0.000150808 -0.00176276 2.61422e-20)
(0.00156233 -0.00237501 0)
(0.00361387 -0.00296665 0)
(0.00599492 -0.00353761 0)
(0.00869627 -0.00408766 0)
(0.0117083 -0.00461592 2.57177e-20)
(0.0150208 -0.00512082 0)
(0.0186225 -0.00560015 -5.09458e-20)
(0.0225008 -0.00605115 0)
(0.0266415 -0.00647066 0)
(0.0310286 -0.00685538 5.01174e-20)
(0.035644 -0.00720207 0)
(0.0404682 -0.00750775 -4.95027e-20)
(0.0454794 -0.00776986 2.45954e-20)
(0.0506546 -0.0079864 -2.44303e-20)
(0.0559694 -0.00815607 2.4262e-20)
(0.0613985 -0.00827825 2.40914e-20)
(0.0669159 -0.00835311 0)
(0.0724954 -0.00838152 0)
(0.0781111 -0.00836508 -2.35715e-20)
(0.0837374 -0.00830598 2.33911e-20)
(0.0893498 -0.00820698 0)
(0.0949247 -0.00807128 0)
(0.10044 -0.0079024 -2.28808e-20)
(0.105875 -0.00770412 0)
(0.111212 -0.00748035 0)
(0.116433 -0.00723503 2.23793e-20)
(0.121524 -0.00697206 0)
(0.126472 -0.00669521 -2.20517e-20)
(0.131266 -0.0064081 4.37991e-20)
(0.135897 -0.00611407 0)
(0.140358 -0.00581624 0)
(0.144645 -0.0055174 8.57682e-20)
(0.148753 -0.00522007 8.51838e-20)
(0.15268 -0.00492644 8.46104e-20)
(0.156426 -0.0046384 -4.20194e-20)
(0.159991 -0.00435753 4.17521e-20)
(0.163378 -0.00408515 1.24434e-19)
(0.166588 -0.00382229 -8.24205e-20)
(0.169625 -0.00356978 -4.09525e-20)
(0.172494 -0.00332818 0)
(0.175198 -0.0030979 4.04416e-20)
(0.177744 -0.00287915 -4.01849e-20)
(0.180137 -0.00267201 0)
(0.182383 -0.00247642 0)
(0.184487 -0.00229223 0)
(0.186457 -0.00211919 3.92282e-20)
(0.188297 -0.00195698 0)
(0.190015 -0.00180523 -7.7521e-20)
(0.191616 -0.00166353 0)
(0.193107 -0.00153145 -7.66099e-20)
(0.194493 -0.00140851 0)
(0.19578 -0.00129426 7.57136e-20)
(0.196973 -0.00118822 0)
(0.198078 -0.00108991 -7.48291e-20)
(0.1991 -0.000998866 3.71934e-20)
(0.200044 -0.000914645 0)
(0.200914 -0.000836803 7.3519e-20)
(0.201716 -0.000764918 3.65444e-20)
(0.202453 -0.000698584 3.63281e-20)
(0.203129 -0.000637414 0)
(0.203748 -0.000581042 3.58943e-20)
(0.204313 -0.000529117 3.56819e-20)
(0.204829 -0.000481307 0)
(0.205298 -0.000437297 -3.52521e-20)
(0.205724 -0.000396786 7.00724e-20)
(0.206108 -0.000359479 0)
(0.206455 -0.000325087 3.46073e-20)
(0.206765 -0.000293384 0)
(0.207042 -0.000264578 -1.02527e-19)
(0.207288 -0.000238669 0)
(0.207505 -0.000214991 1.01229e-19)
(0.207695 -0.000193159 3.35255e-20)
(0.207859 -0.000173061 -3.33058e-20)
(0.208 -0.000154645 -6.61743e-20)
(0.208118 -0.000137736 6.57361e-20)
(0.208216 -0.000122217 0)
(0.208294 -0.000107992 0)
(0.208355 -9.49725e-05 0)
(0.208399 -8.30801e-05 -1.91927e-19)
(0.208426 -7.2246e-05 -6.35332e-20)
(0.20844 -6.24003e-05 6.30892e-20)
(0.208439 -5.34643e-05 0)
(0.208426 -4.53505e-05 6.21967e-20)
(0.208401 -3.79708e-05 -6.17505e-20)
(0.208364 -3.1244e-05 -6.1302e-20)
(0.208317 -2.5102e-05 0)
(0.20826 -1.94899e-05 0)
(0.208194 -1.43632e-05 0)
(0.208119 -9.68442e-06 -5.94956e-20)
(0.208037 -5.41981e-06 0)
(0.207946 -1.53845e-06 1.17169e-19)
(0.207849 1.98918e-06 1.74383e-19)
(0.207745 5.19028e-06 -1.15339e-19)
(0.207635 8.09057e-06 0)
(0.207519 1.07136e-05 -5.6749e-20)
(0.207397 1.30816e-05 0)
(0.20727 1.52148e-05 -1.11649e-19)
(0.207139 1.71327e-05 5.53604e-20)
(0.207002 1.88528e-05 5.48953e-20)
(0.206861 2.03919e-05 0)
(0.206716 2.17653e-05 1.61887e-19)
(0.206568 2.29871e-05 -1.06989e-19)
(0.206415 2.40708e-05 -5.30254e-20)
(0.206259 2.5029e-05 0)
(0.206099 2.58737e-05 -5.20846e-20)
(0.205936 2.66172e-05 -1.54838e-19)
(0.20577 2.72708e-05 0)
(0.205601 2.78456e-05 -1.01334e-19)
(0.20543 2.83508e-05 -1.00386e-19)
(0.205255 2.87938e-05 -9.9436e-20)
(0.205078 2.91791e-05 0)
(0.204898 2.95094e-05 0)
(0.204716 2.97874e-05 0)
(0.204531 3.00166e-05 4.78119e-20)
(0.204344 3.02027e-05 4.7334e-20)
(0.204155 3.03528e-05 0)
(0.203963 3.04745e-05 9.27526e-20)
(0.203769 3.05748e-05 9.17935e-20)
(0.203573 3.06591e-05 0)
(0.203375 3.07315e-05 8.98728e-20)
(0.203174 3.07949e-05 1.77822e-19)
(0.202972 3.08519e-05 -8.7949e-20)
(0.202767 3.0904e-05 -8.6986e-20)
(0.202561 3.09524e-05 0)
(0.202352 3.09973e-05 0)
(0.202142 3.10382e-05 0)
(0.201929 3.10736e-05 -8.31303e-20)
(0.201714 3.11015e-05 8.21654e-20)
(0.201497 3.11203e-05 1.62401e-19)
(0.201278 3.11289e-05 -8.02358e-20)
(0.201057 3.11281e-05 7.92706e-20)
(0.200834 3.11206e-05 7.83058e-20)
(0.200609 3.11117e-05 0)
(0.200382 3.11088e-05 0)
(0.200152 3.11204e-05 -7.54118e-20)
(0.19992 3.11554e-05 0)
(0.199686 3.12222e-05 0)
(0.19945 3.13285e-05 1.45041e-19)
(0.199211 3.14814e-05 0)
(0.198969 3.16894e-05 7.05953e-20)
(0.198725 3.19621e-05 -6.96337e-20)
(0.198478 3.23124e-05 0)
(0.198228 3.27578e-05 6.7712e-20)
(0.197975 3.33208e-05 0)
(0.197718 3.40309e-05 0)
(0.197458 3.49258e-05 -6.48362e-20)
(0.197193 3.60542e-05 1.27759e-19)
(0.196924 3.74775e-05 -6.2924e-20)
(0.196648 3.92749e-05 0)
(0.196367 4.15473e-05 0)
(0.196078 4.44243e-05 6.0065e-20)
(0.195779 4.80736e-05 0)
(0.19547 5.27124e-05 5.81667e-20)
(0.195148 5.86243e-05 0)
(0.194809 6.61823e-05 0)
(0.194449 7.58811e-05 0)
(0.194063 8.83836e-05 5.43951e-20)
(0.193644 0.000104589 0)
(0.193182 0.000125739 -5.25262e-20)
(0.192665 0.000153577 0)
(0.192074 0.000190623 0)
(0.191385 0.000240616 9.95128e-20)
(0.190563 0.000309449 -9.76927e-20)
(0.189557 0.000406489 0)
(0.188284 0.00055014 0)
(0.186648 0.000769939 0)
(0.184276 0.00117161 2.71985e-19)
(0.181648 0.001924 0)
(0.17358 0.00364173 -1.74567e-19)
(-0.0001207 0.00185931 2.38968e-23)
(-0.000679488 0.00363828 -1.04037e-19)
(-0.0013587 0.00406087 0)
(-0.00195475 0.0036194 1.0418e-19)
(-0.00229961 0.00265385 0)
(-0.00229647 0.00139018 0)
(-0.00189257 -2.36369e-05 -2.87151e-23)
(-0.00106001 -0.00149461 -5.22259e-20)
(0.000212475 -0.00296708 -5.20666e-20)
(0.00192545 -0.00441015 -5.1933e-20)
(0.00407345 -0.00580825 0)
(0.00664768 -0.00715469 0)
(0.00963769 -0.00844738 5.12659e-20)
(0.0130321 -0.00968593 1.02009e-19)
(0.0168191 -0.01087 -1.01444e-19)
(0.020986 -0.0119983 0)
(0.0255193 -0.0130683 -1.00197e-19)
(0.0304042 -0.0140762 4.97761e-20)
(0.0356242 -0.0150173 0)
(0.0411608 -0.0158859 -9.80859e-20)
(0.0469938 -0.0166762 -4.86759e-20)
(0.0531003 -0.0173823 9.65589e-20)
(0.0594559 -0.0179989 4.78919e-20)
(0.0660337 -0.0185217 0)
(0.0728056 -0.0189471 -9.416e-20)
(0.0797419 -0.0192732 -9.33452e-20)
(0.0868122 -0.0194991 0)
(0.0939854 -0.0196256 -9.17115e-20)
(0.10123 -0.0196549 0)
(0.108516 -0.0195904 -9.00903e-20)
(0.115813 -0.0194368 -4.46449e-20)
(0.123091 -0.0191999 0)
(0.130324 -0.0188861 0)
(0.137485 -0.0185027 0)
(0.14455 -0.0180575 0)
(0.151497 -0.0175582 0)
(0.158306 -0.0170129 0)
(0.16496 -0.0164296 -8.40239e-20)
(0.171444 -0.0158159 1.24995e-19)
(0.177744 -0.0151792 0)
(0.183848 -0.0145265 0)
(0.18975 -0.0138641 0)
(0.19544 -0.0131979 -2.01577e-24)
(0.200915 -0.0125332 -8.00962e-20)
(0.206171 -0.0118747 -1.58987e-19)
(0.211206 -0.0112265 1.57811e-19)
(0.216021 -0.0105919 7.833e-20)
(0.220616 -0.00997408 -7.7773e-20)
(0.224993 -0.00937527 4.03291e-24)
(0.229156 -0.00879743 -7.66848e-20)
(0.233108 -0.00824202 0)
(0.236855 -0.00771008 -7.56463e-20)
(0.240402 -0.00720231 4.58957e-24)
(0.243755 -0.00671907 0)
(0.24692 -0.00626047 0)
(0.249904 -0.00582635 7.3688e-20)
(0.252714 -0.00541638 0)
(0.255356 -0.00503005 0)
(0.257838 -0.00466672 -7.23007e-20)
(0.260167 -0.00432565 -1.43716e-19)
(0.26235 -0.004006 7.14206e-20)
(0.264394 -0.0037069 0)
(0.266305 -0.00342743 -7.05532e-20)
(0.26809 -0.00316663 0)
(0.269756 -0.00292355 -6.96966e-20)
(0.271309 -0.00269723 -6.92855e-20)
(0.272755 -0.00248673 1.37733e-19)
(0.2741 -0.00229114 6.84513e-20)
(0.275349 -0.00210954 0)
(0.276508 -0.00194107 -1.35277e-19)
(0.277583 -0.00178491 0)
(0.278577 -0.00164024 -2.00496e-19)
(0.279496 -0.0015063 -1.32859e-19)
(0.280344 -0.00138238 -1.3206e-19)
(0.281125 -0.00126779 1.31262e-19)
(0.281844 -0.00116189 -1.95702e-19)
(0.282504 -0.00106408 0)
(0.283108 -0.00097383 0)
(0.283661 -0.000890588 1.28087e-19)
(0.284164 -0.000813643 1.90945e-19)
(0.284622 -0.000742459 0)
(0.285037 -0.000676853 -6.28577e-20)
(0.285412 -0.000616435 0)
(0.28575 -0.000560823 1.86181e-19)
(0.286051 -0.00050957 2.699e-24)
(0.28632 -0.000462404 -2.53999e-24)
(0.286558 -0.000419024 -1.21706e-19)
(0.286766 -0.000379129 0)
(0.286948 -0.000342453 1.20095e-19)
(0.287104 -0.00030876 1.97441e-24)
(0.287236 -0.000277834 0)
(0.287345 -0.000249474 0)
(0.287434 -0.000223481 0)
(0.287503 -0.000199663 -1.16051e-19)
(0.287554 -0.000177835 0)
(0.287587 -0.000157825 0)
(0.287604 -0.000139478 0)
(0.287607 -0.000122657 0)
(0.287595 -0.000107241 0)
(0.28757 -9.31199e-05 -1.11143e-19)
(0.287532 -8.01937e-05 0)
(0.287483 -6.83705e-05 -1.09492e-19)
(0.287423 -5.75648e-05 -1.08663e-19)
(0.287352 -4.76978e-05 1.07832e-19)
(0.287272 -3.86963e-05 0)
(0.287183 -3.04926e-05 1.06164e-19)
(0.287086 -2.30239e-05 0)
(0.28698 -1.62321e-05 1.04487e-19)
(0.286867 -1.0063e-05 -1.03646e-19)
(0.286747 -4.46639e-06 -3.08406e-19)
(0.286621 6.04283e-07 0)
(0.286488 5.19227e-06 -3.03326e-19)
(0.286349 9.33779e-06 -1.00258e-19)
(0.286204 1.30781e-05 0)
(0.286054 1.64483e-05 -1.97107e-19)
(0.285899 1.9481e-05 -1.95396e-19)
(0.28574 2.22072e-05 2.90523e-19)
(0.285575 2.46557e-05 0)
(0.285407 2.68537e-05 9.51209e-20)
(0.285234 2.88252e-05 9.42581e-20)
(0.285058 3.05919e-05 2.80181e-19)
(0.284877 3.21715e-05 0)
(0.284693 3.35792e-05 0)
(0.284506 3.48287e-05 0)
(0.284315 3.59338e-05 8.99192e-20)
(0.284121 3.69091e-05 0)
(0.283924 3.77694e-05 0)
(0.283723 3.85293e-05 -8.72985e-20)
(0.28352 3.92024e-05 -8.6422e-20)
(0.283314 3.97998e-05 0)
(0.283105 4.03314e-05 0)
(0.282893 4.08051e-05 -1.67571e-19)
(0.282679 4.12284e-05 0)
(0.282461 4.16074e-05 1.64044e-19)
(0.282241 4.19477e-05 1.62277e-19)
(0.282019 4.22543e-05 0)
(0.281794 4.25312e-05 0)
(0.281566 4.2781e-05 -1.56967e-19)
(0.281336 4.30065e-05 -2.42671e-25)
(0.281104 4.32099e-05 -2.36183e-25)
(0.280868 4.33942e-05 0)
(0.28063 4.3564e-05 -2.99736e-19)
(0.28039 4.37255e-05 0)
(0.280147 4.38878e-05 0)
(0.279901 4.40618e-05 0)
(0.279653 4.42607e-05 1.42754e-19)
(0.279402 4.44985e-05 0)
(0.279148 4.47901e-05 -2.78385e-19)
(0.278891 4.51507e-05 -1.37411e-19)
(0.278631 4.55971e-05 0)
(0.278369 4.6149e-05 -1.33849e-19)
(0.278103 4.68304e-05 0)
(0.277833 4.76719e-05 0)
(0.27756 4.87133e-05 -3.85515e-19)
(0.277283 5.00051e-05 2.53449e-19)
(0.277002 5.16124e-05 0)
(0.276717 5.36178e-05 2.4633e-19)
(0.276426 5.61266e-05 -1.21387e-19)
(0.276129 5.92729e-05 0)
(0.275826 6.32279e-05 0)
(0.275515 6.82102e-05 0)
(0.275195 7.45014e-05 -3.42852e-19)
(0.274864 8.24644e-05 0)
(0.27452 9.25703e-05 -1.10743e-19)
(0.27416 0.000105434 0)
(0.27378 0.000121863 0)
(0.273375 0.000142928 0)
(0.27294 0.000170061 0)
(0.272464 0.000205204 0)
(0.271937 0.000251027 0)
(0.271344 0.000311266 -1.96897e-19)
(0.270664 0.000391284 0)
(0.269867 0.000498983 -9.49925e-20)