Time,Cells,Substrate
0.05,0.50003,4.50994
