/*--------------------------------*- C++ -*----------------------------------*\
  =========                 |
  \\      /  F ield         | OpenFOAM: The Open Source CFD Toolbox
   \\    /   O peration     | Website:  https://openfoam.org
    \\  /    A nd           | Version:  8
     \\/     M anipulation  |
\*---------------------------------------------------------------------------*/
FoamFile
{
    version     2.0;
    format      ascii;
    class       volScalarField;
    location    "0.88";
    object      p;
}
// * * * * * * * * * * * * * * * * * * * * * * * * * * * * * * * * * * * * * //

dimensions      [0 2 -2 0 0 0 0];

internalField   nonuniform List<scalar> 
12225
(
-0.001965
-0.00193934
-0.00191416
-0.00189488
-0.00188619
-0.00189016
-0.00190861
-0.00194326
-0.00199615
-0.00206992
-0.00216838
-0.00229751
-0.00246726
-0.00269539
-0.00301472
-0.00348667
-0.00428618
-0.00611278
-0.00196477
-0.00194184
-0.00191924
-0.00190228
-0.00189567
-0.00190156
-0.00192183
-0.00195822
-0.00201276
-0.00208809
-0.00218793
-0.00231807
-0.00248782
-0.00271307
-0.00302095
-0.00345787
-0.00411478
-0.00534088
-0.00196555
-0.0019451
-0.00192536
-0.00191104
-0.00190684
-0.00191494
-0.00193725
-0.00197553
-0.00203179
-0.00210854
-0.00220936
-0.00233951
-0.00250718
-0.00272528
-0.00301329
-0.0033979
-0.00389216
-0.00465842
-0.00196757
-0.00194876
-0.00193142
-0.00191951
-0.00191752
-0.00192762
-0.00195173
-0.00199156
-0.00204903
-0.00212649
-0.00222712
-0.00235542
-0.00251791
-0.00272382
-0.00298459
-0.00331018
-0.0036773
-0.00415791
-0.00197071
-0.00195281
-0.00193739
-0.00192763
-0.00192762
-0.00193951
-0.00196513
-0.00200613
-0.00206427
-0.00214162
-0.00224083
-0.00236539
-0.00251984
-0.00270955
-0.00293885
-0.00320604
-0.003477
-0.00377589
-0.00197479
-0.00195724
-0.00194334
-0.00193547
-0.00193725
-0.00195069
-0.00197754
-0.00201932
-0.00207758
-0.00215402
-0.00225063
-0.00236973
-0.0025138
-0.00268468
-0.00288117
-0.00309444
-0.00329063
-0.00347065
-0.00197957
-0.00196195
-0.00194917
-0.00194295
-0.00194628
-0.00196103
-0.0019888
-0.00203094
-0.00208873
-0.00216345
-0.00225633
-0.0023685
-0.00250047
-0.00265118
-0.00281566
-0.00298161
-0.00312009
-0.00322388
-0.0019848
-0.00196678
-0.00195476
-0.00194991
-0.00195454
-0.00197032
-0.00199865
-0.0020407
-0.00209744
-0.00216964
-0.0022578
-0.00236187
-0.00248069
-0.00261104
-0.00274581
-0.002872
-0.00296712
-0.0030237
-0.00199011
-0.0019715
-0.00195992
-0.00195618
-0.00196183
-0.00197833
-0.00200688
-0.00204837
-0.00210346
-0.00217243
-0.00225505
-0.00235022
-0.00245551
-0.0025663
-0.00267466
-0.00276862
-0.00283204
-0.00286017
-0.00199506
-0.00197581
-0.00196444
-0.00196155
-0.00196796
-0.00198487
-0.00201324
-0.00205373
-0.00210664
-0.00217177
-0.00224825
-0.00233415
-0.00242613
-0.00251888
-0.00260463
-0.00267328
-0.00271408
-0.00272535
-0.00199918
-0.00197933
-0.00196805
-0.0019658
-0.0019727
-0.0019897
-0.00201753
-0.00205659
-0.00210685
-0.00216769
-0.00223769
-0.00231434
-0.00239374
-0.00247044
-0.00253738
-0.00258661
-0.0026115
-0.00261293
-0.00200173
-0.00198147
-0.00197025
-0.00196841
-0.00197553
-0.00199234
-0.00201935
-0.00205674
-0.00210423
-0.00216089
-0.00222489
-0.00229338
-0.00236227
-0.00242626
-0.00247914
-0.00251477
-0.00252918
-0.00252503
-0.00200257
-0.00198259
-0.00197141
-0.0019699
-0.00197711
-0.00199353
-0.00201948
-0.00205495
-0.00209943
-0.00215172
-0.00220975
-0.00227048
-0.00232984
-0.00238295
-0.00242455
-0.00245007
-0.0024574
-0.00244934
-0.00200091
-0.00198197
-0.00197105
-0.00196984
-0.001977
-0.00199273
-0.00201717
-0.00205015
-0.00209093
-0.00213813
-0.00218954
-0.00224207
-0.00229189
-0.00233467
-0.0023662
-0.00238327
-0.00238503
-0.00237391
-0.00199501
-0.00197804
-0.00196796
-0.00196711
-0.00197405
-0.00198871
-0.0020111
-0.00204091
-0.00207728
-0.00211873
-0.00216303
-0.00220723
-0.00224787
-0.00228127
-0.00230415
-0.00231431
-0.00231149
-0.0022976
-0.00198237
-0.00196871
-0.00196048
-0.00196023
-0.00196678
-0.00197992
-0.00199961
-0.00202548
-0.00205666
-0.00209169
-0.00212848
-0.00216436
-0.0021963
-0.00222126
-0.00223666
-0.00224092
-0.00223381
-0.00221658
-0.00196007
-0.00195147
-0.00194654
-0.00194736
-0.00195336
-0.00196446
-0.00198066
-0.00200164
-0.00202666
-0.00205441
-0.00208305
-0.00211029
-0.00213356
-0.00215031
-0.00215845
-0.00215664
-0.00214438
-0.00212223
-0.00192575
-0.00192414
-0.00192411
-0.00192655
-0.00193179
-0.00194015
-0.00195179
-0.00196659
-0.00198398
-0.00200294
-0.00202198
-0.00203918
-0.00205241
-0.00205953
-0.0020587
-0.00204863
-0.0020285
-0.00199823
-0.00188067
-0.00188732
-0.001893
-0.00189698
-0.00190063
-0.00190488
-0.00191016
-0.00191657
-0.00192386
-0.00193135
-0.00193794
-0.00194219
-0.00194236
-0.0019367
-0.00192357
-0.00190159
-0.00186956
-0.0018271
-0.00184708
-0.00186028
-0.00187021
-0.00187487
-0.00187638
-0.00187593
-0.00187403
-0.00187088
-0.0018664
-0.00186018
-0.00185149
-0.00183934
-0.00182252
-0.00179976
-0.00176993
-0.001732
-0.00168487
-0.00162781
-0.00183081
-0.00184729
-0.00185916
-0.00186391
-0.00186391
-0.00186025
-0.00185335
-0.00184335
-0.00183023
-0.00181368
-0.0017932
-0.00176809
-0.00173751
-0.00170057
-0.00165649
-0.00160461
-0.00154415
-0.00147458
-0.00182636
-0.00184402
-0.00185655
-0.00186136
-0.00186057
-0.00185494
-0.00184465
-0.00182972
-0.00181004
-0.00178535
-0.00175525
-0.00171925
-0.00167678
-0.00162728
-0.00157032
-0.00150558
-0.00143268
-0.00135135
-0.00182974
-0.00184717
-0.00185973
-0.00186489
-0.00186416
-0.00185781
-0.00184574
-0.00182778
-0.00180371
-0.00177322
-0.00173597
-0.00169158
-0.00163967
-0.00157994
-0.00151223
-0.00143653
-0.00135286
-0.00126129
-0.00183723
-0.00185374
-0.00186624
-0.00187226
-0.00187241
-0.00186643
-0.00185393
-0.00183459
-0.00180802
-0.00177387
-0.00173175
-0.00168134
-0.00162239
-0.00155475
-0.00147847
-0.00139378
-0.00130104
-0.00120068
-0.00184597
-0.00186148
-0.00187427
-0.00188172
-0.00188342
-0.00187864
-0.00186677
-0.0018473
-0.00181974
-0.00178362
-0.00173851
-0.00168409
-0.00162015
-0.00154666
-0.00146377
-0.00137188
-0.00127161
-0.00116376
-0.00185407
-0.00186896
-0.00188264
-0.00189204
-0.00189579
-0.00189279
-0.00188226
-0.00186356
-0.00183608
-0.00179926
-0.00175261
-0.00169575
-0.00162847
-0.00155077
-0.00146289
-0.00136532
-0.00125884
-0.00114457
-0.00186047
-0.00187543
-0.00189072
-0.0019025
-0.00190862
-0.00190775
-0.00189901
-0.00188167
-0.00185502
-0.00181841
-0.00177126
-0.00171312
-0.00164375
-0.00156314
-0.00147154
-0.00136951
-0.0012579
-0.00113805
-0.00186463
-0.00188066
-0.00189831
-0.00191284
-0.00192155
-0.00192304
-0.00191638
-0.00190079
-0.00187549
-0.00183974
-0.00179286
-0.00173432
-0.00166379
-0.00158124
-0.00148689
-0.00138132
-0.0012654
-0.00114058
-0.00186645
-0.00188468
-0.00190535
-0.00192287
-0.0019343
-0.00193825
-0.00193383
-0.00192024
-0.00189664
-0.00186221
-0.00181616
-0.00175787
-0.0016869
-0.00160315
-0.0015068
-0.0013984
-0.00127883
-0.00114956
-0.00186651
-0.00188736
-0.0019108
-0.00193083
-0.00194449
-0.00195047
-0.00194793
-0.00193605
-0.00191398
-0.00188081
-0.00183568
-0.00177787
-0.00170686
-0.00162247
-0.00152484
-0.00141448
-0.00129224
-0.00115961
0.000510519
0.000520056
0.000520867
0.000506553
0.000476988
0.000433094
0.000375842
0.000306305
0.000225626
0.000134943
3.52531e-05
-7.25596e-05
-0.00018775
-0.0003097
-0.000437895
-0.000571877
-0.000711216
-0.000855456
-0.00100407
-0.00115641
-0.00131168
-0.00146886
-0.00162673
-0.00178375
-0.00193816
-0.00208786
-0.00223045
-0.00236325
-0.0024833
-0.00258739
-0.0026721
-0.00273386
-0.00276904
-0.00277401
-0.00274525
-0.00267943
-0.00257357
-0.00242514
-0.00223216
-0.00199334
-0.00170817
-0.00137702
-0.00100118
-0.000582928
-0.000125525
0.000366953
0.000889159
0.00143515
0.00199819
0.0025709
0.00314549
0.00371389
0.00426793
0.00479956
0.00530096
0.00576478
0.00618419
0.00655306
0.006866
0.00711845
0.0073067
0.0074279
0.00748005
0.00746206
0.00737361
0.00721518
0.00698808
0.00669449
0.00633738
0.00592058
0.00544881
0.00492768
0.00436375
0.00376452
0.00313838
0.00249455
0.00184298
0.00119412
0.000558681
-5.27385e-05
-0.000629765
-0.00116305
-0.0016443
-0.00206671
-0.00242536
-0.00271735
-0.00294201
-0.0031008
-0.00319727
-0.00323668
-0.00322572
-0.00317203
-0.00308377
-0.00296913
-0.00283598
-0.00269154
-0.00254222
-0.00239349
-0.00224989
-0.00211503
-0.00199168
-0.00188179
-0.00178651
-0.00170618
-0.00164041
-0.00158812
-0.00154769
-0.0015171
-0.00149413
-0.00147656
-0.00146232
-0.00144957
-0.00143684
-0.00142298
-0.0014072
-0.00138902
-0.00136825
-0.00134493
-0.00131928
-0.00129169
-0.00126261
-0.00123259
-0.00120216
-0.00117189
-0.00114226
-0.00111373
-0.00108666
-0.00106135
-0.001038
-0.00101672
-0.000997545
-0.00098045
-0.00096534
-0.00095208
-0.000940495
-0.000930392
-0.000921562
-0.000913794
-0.00090688
-0.000900622
-0.000894834
-0.000889349
-0.000884016
-0.000878703
-0.000873295
-0.000867697
-0.000861829
-0.000855626
-0.000849036
-0.000842021
-0.000834555
-0.000826622
-0.000818197
-0.000809288
-0.000799896
-0.000790026
-0.000779689
-0.000768897
-0.000757665
-0.000746008
-0.000733941
-0.000721475
-0.000708619
-0.000695377
-0.000681747
-0.000667716
-0.000653263
-0.000638358
-0.000622959
-0.000607014
-0.000590471
-0.000573258
-0.000555331
-0.000536657
-0.000517217
-0.000497045
-0.000476232
-0.000455125
-0.000435503
-0.000408592
0.000523479
0.000532232
0.000532515
0.000518818
0.000491768
0.000452526
0.000401967
0.000340909
0.000270199
0.000190629
0.000102954
7.81401e-06
-9.42555e-05
-0.000202807
-0.000317463
-0.00043789
-0.000563766
-0.000694742
-0.000830401
-0.000970222
-0.00111354
-0.0012595
-0.00140704
-0.00155485
-0.00170135
-0.00184468
-0.00198269
-0.0021129
-0.00223258
-0.0023387
-0.00242802
-0.00249709
-0.00254236
-0.0025602
-0.00254705
-0.00249949
-0.00241437
-0.00228891
-0.00212087
-0.00190861
-0.00165127
-0.00134881
-0.00100215
-0.00061315
-0.000184629
0.000279518
0.000774582
0.00129477
0.00183356
0.00238378
0.00293777
0.00348758
0.0040251
0.00454229
0.00503134
0.00548484
0.0058959
0.00625832
0.00656662
0.00681615
0.0070031
0.00712455
0.0071784
0.00716338
0.0070791
0.00692608
0.00670572
0.00642023
0.00607261
0.00566674
0.00520741
0.00470032
0.0041521
0.00357032
0.00296345
0.00234075
0.00171212
0.00108793
0.000478746
-0.000104993
-0.000653419
-0.00115758
-0.00160979
-0.00200393
-0.00233578
-0.00260321
-0.00280626
-0.00294706
-0.00302965
-0.00305965
-0.00304389
-0.0029899
-0.00290552
-0.00279844
-0.00267589
-0.00254434
-0.00240941
-0.00227581
-0.00214736
-0.00202706
-0.00191718
-0.00181931
-0.00173435
-0.00166258
-0.00160364
-0.00155663
-0.00152014
-0.00149246
-0.00147166
-0.0014558
-0.00144305
-0.00143176
-0.00142057
-0.00140841
-0.0013945
-0.00137836
-0.00135974
-0.00133863
-0.0013152
-0.00128975
-0.00126269
-0.00123451
-0.00120573
-0.00117685
-0.00114837
-0.00112073
-0.00109431
-0.00106941
-0.00104625
-0.00102497
-0.00100563
-0.000988228
-0.000972707
-0.000958953
-0.00094682
-0.000936134
-0.000926707
-0.000918345
-0.000910853
-0.000904042
-0.000897736
-0.000891771
-0.000885999
-0.000880291
-0.000874531
-0.000868624
-0.000862486
-0.00085605
-0.000849264
-0.000842084
-0.000834479
-0.000826425
-0.000817916
-0.000808941
-0.000799497
-0.000789591
-0.000779228
-0.000768422
-0.000757182
-0.000745523
-0.000733458
-0.000720996
-0.000708146
-0.000694911
-0.000681288
-0.000667267
-0.000652828
-0.000637944
-0.000622577
-0.000606683
-0.000590214
-0.000573123
-0.000555366
-0.000536914
-0.000517774
-0.000498004
-0.000477731
-0.000457348
-0.00043859
-0.000412871
0.000602461
0.000604885
0.000599027
0.000581187
0.000552293
0.000513486
0.000465557
0.000409111
0.000344752
0.000273029
0.000194404
0.000109245
1.78323e-05
-7.96322e-05
-0.000183003
-0.00029217
-0.000407025
-0.000527434
-0.000653195
-0.000784004
-0.000919418
-0.00105882
-0.00120137
-0.00134598
-0.00149131
-0.00163569
-0.00177714
-0.00191334
-0.00204165
-0.00215909
-0.0022624
-0.00234805
-0.00241232
-0.0024514
-0.00246141
-0.00243862
-0.00237948
-0.00228082
-0.00213997
-0.00195486
-0.00172424
-0.00144771
-0.00112584
-0.000760205
-0.000353338
9.09894e-05
0.000568037
0.00107208
0.00159657
0.00213428
0.00267745
0.00321799
0.00374767
0.00425832
0.00474198
0.00519113
0.00559879
0.00595866
0.00626523
0.00651382
0.0067006
0.00682265
0.0068779
0.0068651
0.00678381
0.00663456
0.0064188
0.00613877
0.00579749
0.00539888
0.00494775
0.00444988
0.00391201
0.00334182
0.00274792
0.00213974
0.00152736
0.000921323
0.000332307
-0.000229172
-0.000753284
-0.00123115
-0.00165543
-0.00202049
-0.00232274
-0.00256084
-0.0027357
-0.00285043
-0.00290998
-0.00292082
-0.00289039
-0.00282665
-0.00273753
-0.00263053
-0.0025124
-0.00238893
-0.00226492
-0.00214416
-0.00202958
-0.00192337
-0.00182712
-0.00174188
-0.00166823
-0.00160624
-0.00155553
-0.00151527
-0.00148423
-0.0014609
-0.00144363
-0.00143071
-0.00142052
-0.0014116
-0.00140272
-0.00139287
-0.00138133
-0.00136759
-0.00135141
-0.00133271
-0.00131161
-0.00128838
-0.00126338
-0.00123706
-0.0012099
-0.0011824
-0.00115504
-0.00112827
-0.00110247
-0.00107795
-0.00105496
-0.00103366
-0.00101414
-0.000996425
-0.000980483
-0.000966228
-0.000953536
-0.000942257
-0.000932221
-0.00092325
-0.000915162
-0.000907781
-0.000900935
-0.000894468
-0.000888236
-0.00088211
-0.000875975
-0.000869735
-0.000863305
-0.000856616
-0.000849613
-0.000842249
-0.00083449
-0.000826312
-0.0008177
-0.000808642
-0.000799136
-0.000789182
-0.000778787
-0.000767957
-0.000756704
-0.000745039
-0.000732971
-0.000720511
-0.000707666
-0.000694437
-0.000680824
-0.000666815
-0.000652395
-0.00063754
-0.000622217
-0.000606391
-0.000590018
-0.000573065
-0.000555496
-0.0005373
-0.000518499
-0.000499171
-0.000479467
-0.000459782
-0.000442021
-0.000416962
0.000747316
0.000737313
0.000719185
0.000692434
0.000657621
0.000615371
0.00056616
0.000510444
0.000448559
0.000380756
0.00030719
0.000227924
0.000142928
5.20956e-05
-4.47399e-05
-0.000147779
-0.000257228
-0.000373261
-0.000495986
-0.000625404
-0.000761362
-0.000903512
-0.00105127
-0.00120376
-0.00135979
-0.0015178
-0.00167585
-0.00183157
-0.00198217
-0.00212447
-0.00225487
-0.00236946
-0.00246405
-0.00253427
-0.00257571
-0.00258403
-0.00255512
-0.00248526
-0.00237126
-0.00221067
-0.00200188
-0.00174427
-0.00143826
-0.00108525
-0.000687938
-0.000250293
0.000222671
0.000724951
0.00124966
0.00178921
0.00233546
0.00287996
0.00341412
0.00392947
0.0044178
0.0048714
0.00528315
0.00564669
0.00595649
0.00620791
0.0063972
0.00652155
0.006579
0.00656844
0.00648957
0.0063429
0.00612985
0.00585266
0.00551432
0.0051187
0.00467061
0.0041758
0.00364106
0.00307418
0.00248395
0.00188006
0.00127295
0.000673569
9.30558e-05
-0.000457615
-0.000968067
-0.00142902
-0.0018329
-0.0021741
-0.00244926
-0.00265752
-0.00280058
-0.00288259
-0.00290976
-0.00288987
-0.00283167
-0.00274423
-0.00263632
-0.0025159
-0.00238979
-0.00226343
-0.00214097
-0.00202534
-0.00191851
-0.00182173
-0.00173572
-0.00166084
-0.00159716
-0.00154442
-0.00150203
-0.00146909
-0.0014444
-0.00142654
-0.00141397
-0.00140512
-0.0013985
-0.00139278
-0.00138683
-0.00137971
-0.00137073
-0.00135943
-0.00134555
-0.00132901
-0.00130991
-0.0012885
-0.00126512
-0.00124022
-0.00121427
-0.00118777
-0.0011612
-0.00113501
-0.0011096
-0.00108531
-0.00106238
-0.00104102
-0.00102132
-0.00100333
-0.000987036
-0.000972371
-0.000959227
-0.000947471
-0.000936946
-0.000927486
-0.000918918
-0.000911073
-0.000903787
-0.000896907
-0.000890293
-0.000883817
-0.000877365
-0.000870841
-0.000864159
-0.000857249
-0.000850053
-0.000842524
-0.000834625
-0.00082633
-0.00081762
-0.000808482
-0.000798912
-0.000788909
-0.000778475
-0.000767618
-0.000756346
-0.000744667
-0.000732592
-0.00072013
-0.000707285
-0.000694061
-0.000680456
-0.000666462
-0.000652065
-0.000637244
-0.000621972
-0.000606218
-0.000589948
-0.000573132
-0.000555747
-0.000537792
-0.000519298
-0.000500356
-0.00048112
-0.000461957
-0.000444711
-0.000420494
0.000939393
0.00091255
0.000877577
0.000838319
0.000794635
0.000746272
0.000693283
0.000635733
0.00057359
0.000506719
0.000434891
0.000357785
0.000274992
0.000186023
9.03317e-05
-1.26641e-05
-0.000123549
-0.000242875
-0.000371111
-0.000508601
-0.000655505
-0.000811742
-0.000976931
-0.00115033
-0.00133079
-0.00151669
-0.0017059
-0.00189576
-0.00208309
-0.00226417
-0.0024348
-0.00259037
-0.00272594
-0.00283639
-0.00291654
-0.00296133
-0.00296599
-0.00292625
-0.00283846
-0.00269985
-0.00250861
-0.00226404
-0.00196653
-0.00161774
-0.00122077
-0.000779968
-0.000300787
0.000210264
0.000745758
0.00129754
0.00185695
0.00241499
0.00296263
0.00349099
0.00399155
0.00445635
0.00487814
0.0052505
0.00556794
0.00582588
0.00602075
0.00614989
0.00621154
0.0062047
0.00612924
0.00598574
0.00577559
0.00550101
0.00516494
0.00477112
0.00432424
0.00382996
0.00329502
0.00272727
0.00213563
0.00153007
0.000921448
0.000321248
-0.00025871
-0.000806699
-0.00131155
-0.0017631
-0.00215299
-0.00247512
-0.00272587
-0.00290445
-0.00301305
-0.00305672
-0.00304299
-0.00298129
-0.0028822
-0.00275659
-0.00261486
-0.00246619
-0.00231812
-0.00217631
-0.00204457
-0.00192511
-0.0018189
-0.0017261
-0.00164639
-0.0015792
-0.00152383
-0.0014795
-0.00144523
-0.00141988
-0.00140213
-0.00139053
-0.00138353
-0.00137962
-0.00137738
-0.00137554
-0.00137304
-0.00136901
-0.0013628
-0.00135398
-0.0013423
-0.00132772
-0.00131033
-0.0012904
-0.00126827
-0.0012444
-0.00121928
-0.00119341
-0.0011673
-0.00114142
-0.00111618
-0.00109193
-0.00106895
-0.00104744
-0.00102752
-0.00100926
-0.000992642
-0.00097762
-0.000964096
-0.000951946
-0.000941022
-0.000931163
-0.000922205
-0.000913983
-0.000906338
-0.00089912
-0.00089219
-0.000885422
-0.000878704
-0.000871938
-0.00086504
-0.000857937
-0.000850571
-0.000842893
-0.000834866
-0.000826462
-0.000817658
-0.000808443
-0.000798809
-0.000788754
-0.000778279
-0.00076739
-0.000756093
-0.000744397
-0.00073231
-0.00071984
-0.000706993
-0.000693773
-0.000680176
-0.000666198
-0.000651827
-0.000637045
-0.000621829
-0.000606153
-0.00058999
-0.000573315
-0.000556112
-0.000538387
-0.000520176
-0.000501571
-0.000482721
-0.000463952
-0.000446857
-0.000423819
0.00115799
0.00111192
0.00105765
0.00100394
0.000949743
0.000893679
0.00083515
0.000773714
0.000708833
0.000639873
0.000566124
0.000486799
0.000401036
0.000307905
0.000206425
9.55853e-05
-2.56152e-05
-0.000158124
-0.000302782
-0.000460253
-0.00063096
-0.000815003
-0.00101208
-0.00122142
-0.0014417
-0.001671
-0.00190673
-0.00214566
-0.00238388
-0.00261688
-0.00283957
-0.00304642
-0.00323157
-0.003389
-0.00351271
-0.00359691
-0.00363622
-0.00362588
-0.00356194
-0.00344143
-0.00326253
-0.00302461
-0.00272832
-0.00237579
-0.00197067
-0.0015178
-0.00102323
-0.000494147
6.13501e-05
0.000634422
0.00121573
0.00179568
0.00236469
0.00291338
0.00343289
0.00391498
0.00435225
0.00473825
0.00506753
0.00533568
0.00553932
0.00567601
0.00574424
0.00574326
0.00567305
0.00553429
0.00532839
0.0050575
0.00472445
0.00433281
0.00388705
0.00339266
0.00285624
0.00228559
0.00168973
0.00107887
0.000464249
-0.000142027
-0.000727372
-0.00127913
-0.0017851
-0.00223405
-0.00261639
-0.00292492
-0.00315528
-0.00330629
-0.00338012
-0.00338237
-0.00332172
-0.00320927
-0.00305771
-0.00288029
-0.00268974
-0.00249731
-0.00231212
-0.00214073
-0.00198715
-0.0018532
-0.00173895
-0.00164341
-0.00156498
-0.00150192
-0.00145253
-0.00141519
-0.00138834
-0.0013704
-0.00135976
-0.00135481
-0.0013539
-0.00135549
-0.00135815
-0.00136065
-0.00136196
-0.00136125
-0.00135792
-0.00135156
-0.00134198
-0.00132914
-0.00131318
-0.00129438
-0.00127314
-0.00124992
-0.00122525
-0.00119966
-0.0011737
-0.00114785
-0.00112254
-0.00109815
-0.00107498
-0.00105322
-0.00103303
-0.00101446
-0.000997529
-0.000982177
-0.000968318
-0.000955831
-0.000944572
-0.000934385
-0.000925108
-0.000916578
-0.00090864
-0.000901144
-0.000893953
-0.000886942
-0.00088
-0.000873028
-0.000865943
-0.000858672
-0.000851155
-0.000843344
-0.000835199
-0.000826692
-0.0008178
-0.00080851
-0.000798811
-0.000788702
-0.000778183
-0.000767257
-0.000755932
-0.000744213
-0.00073211
-0.00071963
-0.000706778
-0.000693558
-0.00067997
-0.000666009
-0.000651667
-0.000636927
-0.000621773
-0.000606182
-0.000590131
-0.000573601
-0.000556581
-0.000539079
-0.000521135
-0.000502835
-0.000484319
-0.000465863
-0.000448724
-0.0004271
0.00137992
0.00131393
0.00123971
0.00117104
0.00110582
0.00104131
0.000976108
0.000909107
0.000839137
0.000764951
0.000685262
0.000598742
0.000504018
0.00039967
0.000284249
0.000156302
1.44145e-05
-0.000142731
-0.000316285
-0.000507149
-0.00071588
-0.000942592
-0.00118686
-0.00144765
-0.00172318
-0.00201095
-0.00230764
-0.00260915
-0.00291061
-0.00320647
-0.00349059
-0.00375641
-0.00399708
-0.00420569
-0.00437546
-0.00449995
-0.00457328
-0.00459037
-0.00454709
-0.00444042
-0.00426864
-0.00403133
-0.00372968
-0.00336638
-0.00294556
-0.0024727
-0.00195456
-0.0013991
-0.000815191
-0.000212465
0.000398981
0.00100884
0.00160688
0.00218318
0.00272844
0.00323411
0.00369262
0.00409746
0.00444326
0.00472578
0.00494187
0.00508941
0.00516718
0.00517469
0.00511214
0.00498032
0.00478065
0.00451521
0.00418667
0.00379838
0.00335454
0.00286039
0.00232232
0.001748
0.00114647
0.000528119
-9.54144e-05
-0.000711455
-0.00130662
-0.00186724
-0.00237995
-0.00283228
-0.00321321
-0.00351414
-0.00372942
-0.00385693
-0.00389835
-0.00385931
-0.00374917
-0.00358047
-0.00336799
-0.00312761
-0.00287494
-0.00262408
-0.00238658
-0.00217078
-0.00198165
-0.00182112
-0.00168869
-0.00158225
-0.00149884
-0.00143531
-0.00138864
-0.00135613
-0.00133536
-0.00132408
-0.00132023
-0.00132188
-0.0013272
-0.00133449
-0.00134229
-0.00134932
-0.00135457
-0.00135724
-0.00135675
-0.00135273
-0.00134501
-0.00133363
-0.00131875
-0.00130071
-0.00127994
-0.00125697
-0.00123237
-0.0012067
-0.00118055
-0.00115444
-0.00112883
-0.0011041
-0.00108058
-0.00105847
-0.00103793
-0.00101903
-0.00100177
-0.000986106
-0.000971946
-0.00095917
-0.000947633
-0.00093718
-0.000927647
-0.000918873
-0.000910701
-0.000902984
-0.000895583
-0.000888376
-0.00088125
-0.000874108
-0.000866865
-0.000859449
-0.000851801
-0.00084387
-0.000835619
-0.000827016
-0.00081804
-0.000808676
-0.000798913
-0.000788749
-0.000778183
-0.000767217
-0.000755859
-0.000744114
-0.00073199
-0.000719496
-0.000706636
-0.000693415
-0.000679835
-0.000665892
-0.000651579
-0.000636887
-0.000621799
-0.000606297
-0.000590363
-0.000573981
-0.000557144
-0.000539862
-0.00052217
-0.00050415
-0.000485925
-0.000467726
-0.000450433
-0.000430346
0.00158042
0.00149538
0.00140209
0.00131915
0.00124322
0.00117012
0.00109747
0.00102339
0.000945962
0.000863232
0.000773264
0.000674132
0.000563909
0.000440665
0.000302481
0.000147483
-2.61063e-05
-0.000219896
-0.000435234
-0.000673101
-0.000934002
-0.00121784
-0.00152383
-0.00185037
-0.002195
-0.00255434
-0.0029241
-0.0032991
-0.00367335
-0.00404017
-0.00439232
-0.00472219
-0.00502201
-0.00528404
-0.00550084
-0.00566543
-0.00577159
-0.00581397
-0.00578838
-0.00569186
-0.00552282
-0.00528129
-0.00496889
-0.00458884
-0.00414582
-0.00364602
-0.003097
-0.00250752
-0.00188733
-0.00124694
-0.0005973
5.04609e-05
0.000685359
0.00129684
0.00187506
0.0024111
0.00289715
0.00332663
0.00369422
0.00399586
0.0042287
0.00439093
0.00448168
0.0045008
0.00444872
0.00432642
0.00413537
0.0038775
0.00355535
0.00317202
0.0027314
0.00223842
0.00169919
0.00112124
0.000513546
-0.000113354
-0.000747486
-0.00137562
-0.00198357
-0.00255669
-0.00308039
-0.00354082
-0.00392555
-0.00422442
-0.00443012
-0.00453919
-0.00455234
-0.0044747
-0.00431578
-0.00408906
-0.00381111
-0.00350034
-0.00317551
-0.00285406
-0.00255074
-0.00227654
-0.00203826
-0.00183867
-0.00167715
-0.00155074
-0.00145514
-0.00138561
-0.0013376
-0.00130704
-0.00129037
-0.00128445
-0.00128657
-0.00129433
-0.00130558
-0.00131843
-0.00133127
-0.00134276
-0.00135185
-0.00135774
-0.00135988
-0.00135792
-0.00135175
-0.00134144
-0.00132724
-0.00130952
-0.0012888
-0.00126565
-0.0012407
-0.00121459
-0.00118792
-0.00116126
-0.0011351
-0.00110984
-0.00108582
-0.00106326
-0.0010423
-0.00102303
-0.00100543
-0.000989465
-0.000975034
-0.000962011
-0.000950248
-0.000939584
-0.000929854
-0.000920894
-0.000912545
-0.000904659
-0.000897097
-0.000889736
-0.000882464
-0.000875184
-0.00086781
-0.000860272
-0.00085251
-0.000844474
-0.000836126
-0.000827435
-0.000818378
-0.000808942
-0.000799115
-0.000788894
-0.000778278
-0.000767269
-0.000755873
-0.000744098
-0.000731949
-0.000719436
-0.000706566
-0.000693342
-0.000679767
-0.000665842
-0.000651562
-0.000636918
-0.000621899
-0.00060649
-0.000590676
-0.000574445
-0.000557789
-0.00054072
-0.000523267
-0.000505502
-0.000487533
-0.000469545
-0.000452038
-0.000433517
0.00173468
0.00163273
0.00152255
0.00142691
0.00134119
0.00125969
0.001179
0.00109638
0.00100906
0.000914353
0.000809613
0.000692294
0.000559904
0.000410011
0.000240261
4.84151e-05
-0.000167577
-0.000409489
-0.000678707
-0.000976103
-0.00130191
-0.00165558
-0.0020357
-0.0024399
-0.00286477
-0.00330589
-0.00375784
-0.00421426
-0.004668
-0.00511123
-0.00553568
-0.00593276
-0.00629387
-0.00661058
-0.00687485
-0.0070793
-0.00721737
-0.00728358
-0.00727364
-0.00718465
-0.00701522
-0.00676583
-0.00643842
-0.00603668
-0.00556594
-0.00503309
-0.00444651
-0.00381585
-0.00315181
-0.00246586
-0.00176992
-0.00107607
-0.000396152
0.000258512
0.000877431
0.0014512
0.00197171
0.00243223
0.00282747
0.00315358
0.00340796
0.00358919
0.00369678
0.00373097
0.00369251
0.00358257
0.00340266
0.00315468
0.00284098
0.0024644
0.00202853
0.00153793
0.000998448
0.000417373
-0.000196359
-0.000832117
-0.00147761
-0.00211908
-0.00274158
-0.00332948
-0.00386699
-0.00433891
-0.0047313
-0.00503245
-0.00523344
-0.00532906
-0.00531875
-0.0052067
-0.00500207
-0.00471871
-0.00437445
-0.00398993
-0.00358687
-0.00318631
-0.00280668
-0.00246237
-0.0021628
-0.00191239
-0.00171107
-0.00155541
-0.00143994
-0.00135834
-0.00130434
-0.00127226
-0.00125715
-0.00125478
-0.00126158
-0.00127451
-0.00129102
-0.00130891
-0.00132637
-0.00134196
-0.00135454
-0.0013633
-0.00136769
-0.00136739
-0.00136233
-0.00135264
-0.00133864
-0.00132078
-0.00129965
-0.0012759
-0.00125021
-0.00122329
-0.00119579
-0.00116831
-0.00114138
-0.00111542
-0.00109076
-0.00106765
-0.00104621
-0.00102653
-0.0010086
-0.000992342
-0.000977668
-0.000964437
-0.000952494
-0.00094167
-0.000931795
-0.0009227
-0.000914223
-0.000906214
-0.000898533
-0.000891056
-0.00088367
-0.000876279
-0.000868799
-0.000861157
-0.000853295
-0.000845165
-0.000836727
-0.000827952
-0.000818818
-0.00080931
-0.000799418
-0.000789137
-0.000778467
-0.000767411
-0.000755974
-0.000744163
-0.000731986
-0.000719451
-0.000706565
-0.000693335
-0.000679765
-0.000665857
-0.000651609
-0.000637014
-0.000622066
-0.000606752
-0.000591059
-0.000574977
-0.0005585
-0.000541635
-0.000524407
-0.000506874
-0.000489127
-0.000471314
-0.000453562
-0.000436556
0.0018195
0.00170394
0.00158011
0.00147402
0.0013798
0.00129031
0.00120108
0.00110846
0.00100887
0.000898795
0.000774925
0.000634085
0.000473242
0.000289503
8.0137e-05
-0.000157365
-0.000425207
-0.000725181
-0.00105854
-0.00142583
-0.00182682
-0.00226031
-0.00272405
-0.00321471
-0.00372782
-0.00425781
-0.00479808
-0.0053411
-0.00587858
-0.00640167
-0.00690109
-0.00736743
-0.00779135
-0.00816377
-0.00847616
-0.00872072
-0.00889061
-0.00898014
-0.00898491
-0.00890202
-0.00873029
-0.00847045
-0.00812475
-0.00769733
-0.00719413
-0.00662278
-0.00599252
-0.00531392
-0.0045987
-0.00385941
-0.00310905
-0.00236077
-0.00162741
-0.000921212
-0.000253439
0.000365902
0.000928274
0.00142674
0.00185599
0.00221232
0.00249344
0.00269832
0.00282688
0.00287982
0.00285825
0.00276358
0.00259746
0.00236174
0.0020586
0.00169063
0.0012611
0.000774225
0.000235543
-0.000347867
-0.000967151
-0.00161158
-0.00226856
-0.00292382
-0.00356167
-0.00416553
-0.00471847
-0.00520393
-0.00560655
-0.00591294
-0.00611295
-0.00619936
-0.00617014
-0.00602834
-0.00578233
-0.00544584
-0.00503742
-0.00457937
-0.00409606
-0.00361193
-0.00314929
-0.00272637
-0.00235594
-0.00204476
-0.00179403
-0.0016004
-0.00145755
-0.00135767
-0.00129275
-0.00125531
-0.00123884
-0.0012378
-0.00124757
-0.00126437
-0.0012851
-0.00130719
-0.00132857
-0.00134762
-0.00136312
-0.00137421
-0.0013803
-0.00138113
-0.00137666
-0.00136708
-0.00135278
-0.0013343
-0.00131231
-0.00128754
-0.00126074
-0.00123268
-0.00120407
-0.00117555
-0.00114766
-0.00112084
-0.00109545
-0.00107171
-0.00104976
-0.00102965
-0.00101138
-0.000994853
-0.000979964
-0.000966562
-0.00095448
-0.00094354
-0.000933564
-0.000924377
-0.000915813
-0.000907718
-0.000899952
-0.000892388
-0.000884914
-0.000877433
-0.000869861
-0.000862129
-0.000854178
-0.000845959
-0.000837436
-0.000828579
-0.000819368
-0.000809786
-0.000799825
-0.000789481
-0.000778753
-0.000767644
-0.00075616
-0.000744308
-0.000732097
-0.000719535
-0.00070663
-0.000693391
-0.000679823
-0.00066593
-0.000651712
-0.000637167
-0.000622289
-0.000607068
-0.000591495
-0.000575559
-0.000559254
-0.000542582
-0.000525563
-0.000508239
-0.000490684
-0.000473019
-0.000455015
-0.000439401
0.00181547
0.00169052
0.00155709
0.00144328
0.00134212
0.00124518
0.00114701
0.00104309
0.000929008
0.000800524
0.000653649
0.000484633
0.000289954
6.63187e-05
-0.000189289
-0.000479546
-0.000806683
-0.00117236
-0.00157752
-0.00202226
-0.00250568
-0.00302577
-0.00357936
-0.00416206
-0.00476829
-0.00539132
-0.00602342
-0.00665597
-0.00727964
-0.0078846
-0.00846073
-0.00899785
-0.00948591
-0.00991527
-0.0102769
-0.0105624
-0.0107648
-0.0108781
-0.0108975
-0.0108202
-0.0106452
-0.0103732
-0.0100067
-0.00955044
-0.00901081
-0.0083962
-0.00771672
-0.00698394
-0.00621065
-0.00541057
-0.0045979
-0.00378697
-0.00299179
-0.00222566
-0.00150075
-0.000827826
-0.000215955
0.000327607
0.000797466
0.00119002
0.00150327
0.00173659
0.00189039
0.00196582
0.00196444
0.00188797
0.00173822
0.00151707
0.00122652
0.000868959
0.000447332
-3.44657e-05
-0.000571212
-0.00115603
-0.00178015
-0.00243272
-0.00310087
-0.00376978
-0.00442308
-0.00504323
-0.0056122
-0.00611219
-0.00652643
-0.00684008
-0.00704138
-0.00712173
-0.00707744
-0.00691024
-0.00662755
-0.0062426
-0.00577415
-0.00524562
-0.00468348
-0.00411521
-0.00356684
-0.00306059
-0.00261296
-0.00223373
-0.00192593
-0.00168693
-0.00150996
-0.00138599