/*--------------------------------*- C++ -*----------------------------------*\
  =========                 |
  \\      /  F ield         | OpenFOAM: The Open Source CFD Toolbox
   \\    /   O peration     | Website:  https://openfoam.org
    \\  /    A nd           | Version:  8
     \\/     M anipulation  |
\*---------------------------------------------------------------------------*/
FoamFile
{
    version     2.0;
    format      ascii;
    class       surfaceScalarField;
    location    "0.88";
    object      phi;
}
// * * * * * * * * * * * * * * * * * * * * * * * * * * * * * * * * * * * * * //

dimensions      [0 3 -1 0 0 0 0];

internalField   nonuniform List<scalar> 
24170
(
-2.13543e-12
2.13543e-12
3.93166e-12
-6.06709e-12
1.72503e-11
-1.33186e-11
3.62713e-11
-1.9021e-11
5.98275e-11
-2.35562e-11
8.71776e-11
-2.73501e-11
1.17825e-10
-3.0647e-11
1.51429e-10
-3.3604e-11
1.87771e-10
-3.63421e-11
2.26763e-10
-3.89926e-11
2.68478e-10
-4.17145e-11
3.13157e-10
-4.46793e-11
3.61121e-10
-4.79643e-11
4.12173e-10
-5.10514e-11
4.62318e-10
-5.01453e-11
4.86206e-10
-2.38874e-11
3.9667e-10
8.95353e-11
1.2843e-09
-8.87625e-10
-2.25287e-12
4.3883e-12
1.83534e-11
-2.66733e-11
6.09897e-11
-5.5955e-11
1.21086e-10
-7.91168e-11
1.95224e-10
-9.76945e-11
2.81019e-10
-1.13145e-10
3.76774e-10
-1.26402e-10
4.81191e-10
-1.38021e-10
5.93229e-10
-1.4838e-10
7.12035e-10
-1.57798e-10
8.36827e-10
-1.66507e-10
9.66534e-10
-1.74386e-10
1.09862e-09
-1.80055e-10
1.22549e-09
-1.77915e-10
1.3227e-09
-1.47361e-10
1.31111e-09
-1.2289e-11
9.03891e-10
4.9675e-10
2.84742e-09
-6.59231e-10
1.49522e-12
2.89308e-12
4.08203e-11
-6.59985e-11
1.17635e-10
-1.32769e-10
2.24597e-10
-1.86079e-10
3.55959e-10
-2.29057e-10
5.07457e-10
-2.64642e-10
6.75871e-10
-2.94816e-10
8.58531e-10
-3.20682e-10
1.05301e-09
-3.42863e-10
1.25686e-09
-3.61649e-10
1.46712e-09
-3.76766e-10
1.67915e-09
-3.86413e-10
1.88363e-09
-3.84536e-10
2.05892e-09
-3.53207e-10
2.15131e-09
-2.39747e-10
2.02552e-09
1.13495e-10
1.33846e-09
1.18381e-09
4.46976e-09
-2.83882e-10
8.97636e-12
-6.08328e-12
7.19982e-11
-1.2902e-10
1.88276e-10
-2.49047e-10
3.48065e-10
-3.45868e-10
5.4322e-10
-4.24212e-10
7.67368e-10
-4.88791e-10
1.0154e-09
-5.42849e-10
1.28277e-09
-5.88052e-10
1.56496e-09
-6.25053e-10
1.85689e-09
-6.53573e-10
2.15184e-09
-6.71718e-10
2.43923e-09
-6.73809e-10
2.69958e-09
-6.4488e-10
2.89346e-09
-5.47092e-10
2.93855e-09
-2.84833e-10
2.66891e-09
3.83137e-10
1.79457e-09
2.05815e-09
6.06009e-09
2.04244e-10
2.03132e-11
-2.63965e-11
1.12328e-10
-2.21035e-10
2.7361e-10
-4.10329e-10
4.92129e-10
-5.64387e-10
7.57282e-10
-6.89365e-10
1.06036e-09
-7.91873e-10
1.39397e-09
-8.76451e-10
1.75108e-09
-9.45166e-10
2.12428e-09
-9.98253e-10
2.5047e-09
-1.034e-09
2.88033e-09
-1.04734e-09
3.23261e-09
-1.02609e-09
3.5299e-09
-9.42175e-10
3.71531e-09
-7.32501e-10
3.68698e-09
-2.56507e-10
3.27914e-09
7.90978e-10
2.29416e-09
3.04313e-09
7.561e-09
7.93254e-10
3.53697e-11
-6.17662e-11
1.61845e-10
-3.4751e-10
3.7366e-10
-6.22145e-10
6.56445e-10
-8.47172e-10
9.97066e-10
-1.02999e-09
1.38425e-09
-1.17906e-09
1.80786e-09
-1.30006e-09
2.25781e-09
-1.39511e-09
2.72291e-09
-1.46335e-09
3.18941e-09
-1.5005e-09
3.63864e-09
-1.49658e-09
4.0429e-09
-1.43034e-09
4.35839e-09
-1.25766e-09
4.51465e-09
-8.8876e-10
4.40325e-09
-1.45113e-10
3.88255e-09
1.31168e-09
2.85104e-09
4.07464e-09
8.93598e-09
1.47606e-09
5.38448e-11
-1.15611e-10
2.20044e-10
-5.13709e-10
4.87538e-10
-8.89638e-10
8.39344e-10
-1.19898e-09
1.25969e-09
-1.45033e-09
1.73451e-09
-1.65388e-09
2.25052e-09
-1.81608e-09
2.79395e-09
-1.93854e-09
3.34905e-09
-2.01845e-09
3.8963e-09
-2.04775e-09
4.4096e-09
-2.00988e-09
4.85199e-09
-1.87273e-09
5.16952e-09
-1.5752e-09
5.2846e-09
-1.00384e-09
5.09511e-09
4.43763e-11
4.49779e-09
1.909e-09
3.47413e-09
5.0983e-09
1.0163e-08
2.24711e-09
7.52073e-11
-1.90818e-10
2.85735e-10
-7.24237e-10
6.13157e-10
-1.21706e-09
1.03742e-09
-1.62324e-09
1.53995e-09
-1.95287e-09
2.1037e-09
-2.21762e-09
2.71188e-09
-2.42426e-09
3.34652e-09
-2.57317e-09
3.98674e-09
-2.65867e-09
4.60672e-09
-2.66773e-09
5.1729e-09
-2.57606e-09
5.64025e-09
-2.34008e-09
5.94831e-09
-1.88326e-09
6.01975e-09
-1.07528e-09
5.76911e-09
2.95021e-10
5.13666e-09
2.54145e-09
4.16718e-09
6.06778e-09
1.12267e-08
3.10352e-09
9.86597e-11
-2.89478e-10
3.56896e-10
-9.82473e-10
7.46957e-10
-1.60712e-09
1.24511e-09
-2.12139e-09
1.82982e-09
-2.53758e-09
2.48089e-09
-2.8687e-09
3.1778e-09
-3.12117e-09
3.89807e-09
-3.29344e-09
4.61544e-09
-3.37604e-09
5.29786e-09
-3.35016e-09
5.90512e-09
-3.18332e-09
6.38645e-09
-2.82141e-09
6.6795e-09
-2.17631e-09
6.71415e-09
-1.10993e-09
6.42813e-09
5.8104e-10
5.80344e-09
3.16614e-09
4.9278e-09
6.94341e-09
1.21136e-08
4.04083e-09
1.23099e-10
-4.12577e-10
4.30544e-10
-1.28992e-09
8.8361e-10
-2.06019e-09
1.45427e-09
-2.69204e-09
2.11788e-09
-3.2012e-09
2.85105e-09
-3.60186e-09
3.62947e-09
-3.89959e-09
4.42617e-09
-4.09013e-09
5.20971e-09
-4.15959e-09
5.94255e-09
-4.083e-09
6.57949e-09
-3.82026e-09
7.06716e-09
-3.30907e-09
7.34608e-09
-2.45523e-09
7.35883e-09
-1.12268e-09
7.06893e-09
8.70941e-10
6.49381e-09
3.74126e-09
5.74655e-09
7.69068e-09
1.281e-08
5.05014e-09
1.47229e-10
-5.59806e-10
5.02638e-10
-1.64533e-09
1.01579e-09
-2.57334e-09
1.65381e-09
-3.33006e-09
2.38888e-09
-3.93626e-09
3.19452e-09
-4.40751e-09
4.04291e-09
-4.74798e-09
4.90297e-09
-4.95019e-09
5.73885e-09
-4.99547e-09
6.5089e-09
-4.85304e-09
7.16528e-09
-4.47665e-09
7.65551e-09
-3.7993e-09
7.92722e-09
-2.72695e-09
7.93906e-09
-1.13451e-09
7.67957e-09
1.13042e-09
7.19339e-09
4.22744e-09
6.60516e-09
8.2789e-09
1.33001e-08
6.11508e-09
1.41965e-10
-7.01771e-10
4.75129e-10
-1.97849e-09
9.49438e-10
-3.04765e-09
1.53283e-09
-3.91345e-09
2.19934e-09
-4.60278e-09
2.92456e-09
-5.13272e-09
3.68269e-09
-5.50611e-09
4.44501e-09
-5.7125e-09
5.17885e-09
-5.72932e-09
5.84735e-09
-5.52154e-09
6.4102e-09
-5.03951e-09
6.82631e-09
-4.2154e-09
7.05935e-09
-2.95999e-09
7.08767e-09
-1.16283e-09
6.91851e-09
1.29958e-09
6.60397e-09
4.54199e-09
6.2506e-09
8.63227e-09
1.35414e-08
6.00929e-09
1.78333e-10
-8.80104e-10
5.91981e-10
-2.39214e-09
1.17245e-09
-3.62812e-09
1.87924e-09
-4.62025e-09
2.68038e-09
-5.40391e-09
3.54604e-09
-5.99838e-09
4.44485e-09
-6.40493e-09
5.3421e-09
-6.60976e-09
6.19906e-09
-6.58627e-09
6.97342e-09
-6.2959e-09
7.62136e-09
-5.68745e-09
8.10176e-09
-4.6958e-09
8.38362e-09
-3.24184e-09
8.45685e-09
-1.23607e-09
8.34559e-09
1.41084e-09
8.11979e-09
4.76779e-09
7.89786e-09
8.8542e-09
1.36094e-08
7.82991e-09
2.15919e-10
-1.09602e-09
7.12536e-10
-2.88876e-09
1.40005e-09
-4.31563e-09
2.22838e-09
-5.44858e-09
3.15946e-09
-6.33499e-09
4.15823e-09
-6.99715e-09
5.18824e-09
-7.43494e-09
6.20971e-09
-7.63122e-09
7.17938e-09
-7.55594e-09
8.05203e-09
-7.16855e-09
8.78389e-09
-6.41931e-09
9.33849e-09
-5.25039e-09
9.69507e-09
-3.59843e-09
9.85916e-09
-1.40016e-09
9.87302e-09
1.39699e-09
9.82187e-09
4.81894e-09
9.82998e-09
8.84609e-09
1.33979e-08
1.00414e-08
2.46214e-10
-1.34224e-09
8.08251e-10
-3.45079e-09
1.57717e-09
-5.08455e-09
2.49398e-09
-6.36539e-09
3.516e-09
-7.35701e-09
4.60483e-09
-8.08599e-09
5.72134e-09
-8.55145e-09
6.8238e-09
-8.73369e-09
7.86847e-09
-8.60061e-09
8.81211e-09
-8.11219e-09
9.61672e-09
-7.22392e-09
1.02562e-08
-5.88991e-09
1.07249e-08
-4.06707e-09
1.10458e-08
-1.72109e-09
1.12777e-08
1.16511e-09
1.15155e-08
4.58116e-09
1.1882e-08
8.47953e-09
1.27702e-08
1.25097e-08
2.51936e-10
-1.59417e-09
8.22709e-10
-4.02157e-09
1.59557e-09
-5.85741e-09
2.50827e-09
-7.27809e-09
3.51836e-09
-8.3671e-09
4.58915e-09
-9.15678e-09
5.68446e-09
-9.64676e-09
6.76715e-09
-9.81637e-09
7.80022e-09
-9.63368e-09
8.7502e-09
-9.06217e-09
9.59224e-09
-8.06595e-09
1.03166e-08
-6.61428e-09
1.09356e-08
-4.68603e-09
1.1489e-08
-2.27454e-09
1.20469e-08
6.07236e-10
1.27061e-08
3.92199e-09
1.35802e-08
7.60539e-09
1.15664e-08
1.47841e-08
2.03481e-10
-1.79765e-09
6.59552e-10
-4.47764e-09
1.27074e-09
-6.46859e-09
1.98652e-09
-7.99387e-09
2.77528e-09
-9.15585e-09
3.61184e-09
-9.99334e-09
4.47307e-09
-1.0508e-08
5.33702e-09
-1.06803e-08
6.18434e-09
-1.0481e-08
7.00145e-09
-9.87928e-09
7.78501e-09
-8.84952e-09
8.54677e-09
-7.37604e-09
9.31782e-09
-5.45708e-09
1.0151e-08
-3.10773e-09
1.11202e-08
-3.61948e-10
1.23153e-08
2.72689e-09
1.38332e-08
6.08746e-09
9.63396e-09
1.57656e-08
5.77319e-11
-1.85539e-09
1.80235e-10
-4.60014e-09
3.38485e-10
-6.62684e-09
5.21035e-10
-8.17642e-09
7.24959e-10
-9.35978e-09
9.5157e-10
-1.02199e-08
1.20514e-09
-1.07616e-08
1.49308e-09
-1.09683e-08
1.82715e-09
-1.08151e-08
2.22545e-09
-1.02776e-08
2.71485e-09
-9.33892e-09
3.33316e-09
-7.99435e-09
4.13041e-09
-6.25433e-09
5.16846e-09
-4.14578e-09
6.51837e-09
-1.71186e-09
8.25558e-09
9.8967e-10
1.04535e-08
3.8895e-09
6.91119e-09
1.31763e-08
-2.30484e-10
-1.6249e-09
-7.52192e-10
-4.07843e-09
-1.45957e-09
-5.91947e-09
-2.29076e-09
-7.34523e-09
-3.19894e-09
-8.45159e-09
-4.13982e-09
-9.27907e-09
-5.06663e-09
-9.83476e-09
-5.92813e-09
-1.01068e-08
-6.66795e-09
-1.00752e-08
-7.22447e-09
-9.72106e-09
-7.53141e-09
-9.03198e-09
-7.51873e-09
-8.00703e-09
-7.11436e-09
-6.65871e-09
-6.24661e-09
-5.01353e-09
-4.84758e-09
-3.11089e-09
-2.85712e-09
-1.00079e-09
-2.26444e-10
1.25883e-09
3.60637e-09
3.07837e-09
-3.33039e-10
-1.29186e-09
-1.08767e-09
-3.32381e-09
-2.11472e-09
-4.89242e-09
-3.3322e-09
-6.12774e-09
-4.6824e-09
-7.1014e-09
-6.11362e-09
-7.84784e-09
-7.57305e-09
-8.37533e-09
-9.00403e-09
-8.67578e-09
-1.03457e-08
-8.73353e-09
-1.15342e-08
-8.53256e-09
-1.25042e-08
-8.062e-09
-1.31913e-08
-7.31999e-09
-1.35343e-08
-6.31567e-09
-1.34781e-08
-5.06968e-09
-1.29758e-08
-3.61322e-09
-1.19905e-08
-1.98607e-09
-1.04977e-08
-2.33962e-10
1.59415e-09
-8.48551e-09
-3.55352e-10
-9.36511e-10
-1.16616e-09
-2.513e-09
-2.2806e-09
-3.77798e-09
-3.61671e-09
-4.79163e-09
-5.1169e-09
-5.60121e-09
-6.72998e-09
-6.23476e-09
-8.40396e-09
-6.70136e-09
-1.00832e-08
-6.99652e-09
-1.17082e-08
-7.10856e-09
-1.32164e-08
-7.02437e-09
-1.45443e-08
-6.73404e-09
-1.56302e-08
-6.23417e-09
-1.64161e-08
-5.52976e-09
-1.6851e-08
-4.63476e-09
-1.68927e-08
-3.57155e-09
-1.65094e-08
-2.36938e-09
-1.56808e-08
-1.06249e-09
3.11938e-10
-1.43986e-08
-3.16051e-10
-6.20459e-10
-1.04993e-09
-1.77912e-09
-2.07528e-09
-2.75263e-09
-3.32285e-09
-3.54406e-09
-4.74237e-09
-4.18168e-09
-6.2889e-09
-4.68823e-09
-7.91701e-09
-5.07325e-09
-9.5783e-09
-5.33523e-09
-1.12208e-08
-5.46607e-09
-1.27896e-08
-5.45553e-09
-1.42287e-08
-5.29493e-09
-1.5483e-08
-4.97995e-09
-1.65004e-08
-4.51228e-09
-1.7235e-08
-3.90024e-09
-1.76479e-08
-3.15858e-09
-1.77099e-08
-2.30745e-09
-1.74013e-08
-1.37101e-09
-3.76288e-10
-1.67131e-08
-2.48687e-10
-3.71772e-10
-8.44878e-10
-1.18293e-09
-1.69828e-09
-1.89923e-09
-2.7555e-09
-2.48684e-09
-3.97522e-09
-2.96196e-09
-5.32028e-09
-3.34317e-09
-6.75367e-09
-3.63986e-09
-8.23632e-09
-3.85257e-09
-9.72627e-09
-3.97612e-09
-1.11789e-08
-4.00291e-09
-1.2548e-08
-3.92585e-09
-1.37874e-08
-3.74051e-09
-1.48531e-08
-3.44655e-09
-1.57051e-08
-3.04828e-09
-1.6309e-08
-2.55466e-09
-1.66378e-08
-1.97871e-09
-1.66722e-08
-1.33653e-09
-6.46744e-10
-1.64018e-08
-1.76105e-10
-1.95667e-10
-6.22403e-10
-7.36635e-10
-1.28329e-09
-1.23834e-09
-2.11931e-09
-1.65082e-09
-3.09732e-09
-1.98396e-09
-4.1877e-09
-2.25279e-09
-5.36177e-09
-2.46579e-09
-6.58976e-09
-2.62458e-09
-7.8398e-09
-2.72608e-09
-9.07772e-09
-2.76499e-09
-1.02677e-08
-2.73591e-09
-1.13732e-08
-2.63499e-09
-1.23588e-08
-2.46092e-09
-1.31916e-08
-2.21554e-09
-1.38424e-08
-1.90383e-09
-1.42874e-08
-1.53366e-09
-1.45088e-08
-1.11514e-09
-6.60256e-10
-1.44953e-08
-1.11504e-10
-8.41629e-11
-4.22667e-10
-4.25473e-10
-9.05018e-10
-7.55991e-10
-1.52949e-09
-1.02634e-09
-2.26985e-09
-1.2436e-09
-3.10325e-09
-1.4194e-09
-4.00839e-09
-1.56065e-09
-4.96378e-09
-1.66919e-09
-5.94652e-09
-1.74335e-09
-6.93185e-09
-1.77966e-09
-7.89341e-09
-1.77435e-09
-8.80394e-09
-1.72445e-09
-9.63635e-09
-1.62851e-09
-1.03649e-08
-1.487e-09
-1.09663e-08
-1.30244e-09
-1.14207e-08
-1.07921e-09
-1.17126e-08
-8.23228e-10
-5.41634e-10
-1.18313e-08
-6.09459e-11
-2.3217e-11
-2.63174e-10
-2.23245e-10
-5.95933e-10
-4.23232e-10
-1.03741e-09
-5.84865e-10
-1.56727e-09
-7.13733e-10
-2.16857e-09
-8.18097e-10
-2.82631e-09
-9.02913e-10
-3.52578e-09
-9.69716e-10
-4.25145e-09
-1.01768e-09
-4.98639e-09
-1.04472e-09
-5.71228e-09
-1.04846e-09
-6.40986e-09
-1.02688e-09
-7.05956e-09
-9.78802e-10
-7.64243e-09
-9.04134e-10
-8.1409e-09
-8.03969e-10
-8.53959e-09
-6.80524e-10
-8.82587e-09
-5.36945e-10
-3.77066e-10
-8.99044e-09
-2.58689e-11
2.65182e-12
-1.4723e-10
-1.01884e-10
-3.62508e-10
-2.07954e-10
-6.55204e-10
-2.92169e-10
-1.01028e-09
-3.58658e-10
-1.41588e-09
-4.12494e-10
-1.86211e-09
-4.56686e-10
-2.33959e-09
-4.92232e-10
-2.8385e-09
-5.18767e-10
-3.34802e-09
-5.35202e-10
-3.85625e-09
-5.40228e-10
-4.35044e-09
-5.32684e-10
-4.81744e-09
-5.11806e-10
-5.2442e-09
-4.77374e-10
-5.6184e-09
-4.29768e-10
-5.92897e-09
-3.69951e-10
-6.16654e-09
-2.99384e-10
-2.19836e-10
-6.32377e-09
-5.10891e-12
7.76073e-12
-7.04668e-11
-3.6526e-11
-1.97559e-10
-8.08614e-11
-3.74399e-10
-1.1533e-10
-5.90814e-10
-1.42243e-10
-8.39282e-10
-1.64025e-10
-1.11389e-09
-1.82078e-10
-1.40924e-09
-1.96879e-10
-1.71971e-09
-2.08298e-10
-2.03903e-09
-2.15881e-10
-2.3602e-09
-2.19065e-10
-2.67555e-09
-2.17331e-10
-2.97705e-09
-2.10309e-10
-3.25658e-09
-1.97844e-10
-3.50632e-09
-1.80021e-10
-3.71912e-09
-1.5716e-10
-3.88872e-09
-1.29781e-10
-9.85214e-11
-4.01003e-09
3.95807e-12
3.80267e-12
-2.52683e-11
-7.29971e-12
-8.83462e-11
-1.77835e-11
-1.77925e-10
-2.5751e-11
-2.88281e-10
-3.1887e-11
-4.15453e-10
-3.6853e-11
-5.56517e-10
-4.10147e-11
-7.08898e-10
-4.44977e-11
-8.69921e-10
-4.72751e-11
-1.03656e-09
-4.92386e-11
-1.20538e-09
-5.02498e-11
-1.37253e-09
-5.01774e-11
-1.53392e-09
-4.89217e-11
-1.68533e-09
-4.64304e-11
-1.82265e-09
-4.27055e-11
-1.942e-09
-3.78033e-11
-2.03997e-09
-3.18129e-11
-2.48685e-11
-2.11362e-09
3.80267e-12
-3.49704e-12
-2.12805e-11
-4.70315e-11
-7.89184e-11
-1.15771e-10
-1.56786e-10
-2.01284e-10
-2.48559e-10
-2.97798e-10
-3.48047e-10
-3.98225e-10
-4.47146e-10
-4.93577e-10
-5.36282e-10
-5.74086e-10
-6.05899e-10
-6.30767e-10
4.51371e-11
-4.51371e-11
1.54075e-10
-1.08938e-10
2.984e-10
-1.44325e-10
4.52439e-10
-1.5404e-10
5.96152e-10
-1.43713e-10
7.1452e-10
-1.18367e-10
7.96726e-10
-8.22063e-11
8.35352e-10
-3.86266e-11
8.25516e-10
9.83639e-12
7.64421e-10
6.10954e-11
6.50467e-10
1.13953e-10
4.82949e-10
1.67519e-10
2.61618e-10
2.2133e-10
-1.35953e-11
2.75213e-10
-3.428e-10
3.29205e-10
-7.26271e-10
3.83471e-10
-1.16449e-09
4.38221e-10
-1.65816e-09
4.93673e-10
-2.20815e-09
5.49987e-10
-2.81538e-09
6.07226e-10
-3.4807e-09
6.6532e-10
-4.20473e-09
7.24038e-10
-4.98771e-09
7.82974e-10
-5.82925e-09
8.41541e-10
-6.72822e-09
8.98968e-10
-7.68253e-09
9.54309e-10
-8.68899e-09
1.00646e-09
-9.74317e-09
1.05418e-09
-1.08393e-08
1.09612e-09
-1.19701e-08
1.13085e-09
-1.31271e-08
1.1569e-09
-1.42999e-08
1.1728e-09
-1.5477e-08
1.17713e-09
-1.66455e-08
1.16855e-09
-1.77914e-08
1.14589e-09
-1.88996e-08
1.10816e-09
-1.99542e-08
1.05462e-09
-2.0939e-08
9.84819e-10
-2.18376e-08
8.98628e-10
-2.26339e-08
7.96279e-10
-2.33123e-08
6.78377e-10
-2.38582e-08
5.45906e-10
-2.42584e-08
4.00222e-10
-2.45015e-08
2.43039e-10
-2.45781e-08
7.65977e-11
-2.44802e-08
-9.79021e-11
-2.42036e-08
-2.76539e-10
-2.37463e-08
-4.57346e-10
-2.31087e-08
-6.37552e-10
-2.22943e-08
-8.14443e-10
-2.13089e-08
-9.8543e-10
-2.01608e-08
-1.14811e-09
-1.88604e-08
-1.30031e-09
-1.74203e-08
-1.44018e-09
-1.5854e-08
-1.56622e-09
-1.41768e-08
-1.67727e-09
-1.24042e-08
-1.77257e-09
-1.05525e-08
-1.85172e-09
-8.63784e-09
-1.91464e-09
-6.67631e-09
-1.96152e-09
-4.68354e-09
-1.99277e-09
-2.67465e-09
-2.00889e-09
-6.64267e-10
-2.01038e-09
1.33362e-09
-1.99789e-09
3.30553e-09
-1.97192e-09
5.23807e-09
-1.93254e-09
7.11795e-09
-1.87988e-09
8.9319e-09
-1.81395e-09
1.06664e-08
-1.73448e-09
1.23074e-08
-1.64105e-09
1.38406e-08
-1.53313e-09
1.52508e-08
-1.41024e-09
1.65228e-08
-1.272e-09
1.76411e-08
-1.11833e-09
1.85907e-08
-9.49549e-10
1.93572e-08
-7.66515e-10
1.99279e-08
-5.70743e-10
2.02924e-08
-3.64488e-10
2.04433e-08
-1.50876e-10
2.03765e-08
6.68178e-11
2.00933e-08
2.83139e-10
1.95995e-08
4.93892e-10
1.89058e-08
6.93626e-10
1.80288e-08
8.7699e-10
1.69899e-08
1.03889e-09
1.58152e-08
1.17479e-09
1.45341e-08
1.28107e-09
1.31788e-08
1.35528e-09
1.17825e-08
1.39633e-09
1.03779e-08
1.40459e-09
8.996e-09
1.38189e-09
7.66466e-09
1.33134e-09
6.40756e-09
1.2571e-09
5.24354e-09
1.16402e-09
4.18627e-09
1.05727e-09
3.24422e-09
9.42044e-10
2.42098e-09
8.23243e-10
1.71563e-09
7.05351e-10
1.12328e-09
5.92344e-10
6.35622e-10
4.87661e-10
2.41459e-10
3.94163e-10
-7.25763e-11
3.14036e-10
-3.21217e-10
2.48641e-10
-5.19556e-10
1.98339e-10
-6.81987e-10
1.62431e-10
-8.21238e-10
1.3925e-10
-9.476e-10
1.26362e-10
-1.0685e-09
1.20899e-10
-1.18843e-09
1.19929e-10
-1.30921e-09
1.20785e-10
-1.43052e-09
1.21303e-10
-1.55045e-09
1.19931e-10
-1.66618e-09
1.15736e-10
-1.77451e-09
1.0833e-10
-1.87227e-09
9.77613e-11
-1.95667e-09
8.43931e-11
-2.02546e-09
6.87924e-11
-2.0771e-09
5.16374e-11
-2.11074e-09
3.36459e-11
-2.12627e-09
1.55244e-11
-2.12419e-09
-2.07935e-12
-2.10556e-09
-1.86252e-11
-2.07196e-09
-3.36015e-11
-2.02527e-09
-4.6689e-11
-1.96763e-09
-5.76426e-11
-1.90129e-09
-6.63368e-11
-1.82854e-09
-7.27506e-11
-1.75159e-09
-7.69537e-11
-1.6725e-09
-7.90911e-11
-1.59313e-09
-7.93653e-11
-1.51511e-09
-7.80178e-11
-1.4398e-09
-7.53127e-11
-1.36828e-09
-7.15206e-11
-1.30138e-09
-6.69058e-11
-1.23966e-09
-6.1716e-11
-1.18348e-09
-5.61751e-11
-1.13301e-09
-5.04782e-11
-1.08822e-09
-4.47897e-11
-1.04897e-09
-3.92428e-11
-1.01503e-09
-3.39412e-11
-9.86071e-10
-2.89609e-11
-9.61717e-10
-2.43541e-11
-9.41565e-10
-2.0152e-11
-9.25197e-10
-1.63687e-11
-9.12192e-10
-1.30048e-11
-9.02142e-10
-1.005e-11
-8.94655e-10
-7.48647e-12
-8.89365e-10
-5.29079e-12
-8.85928e-10
-3.43621e-12
-8.84031e-10
-1.89743e-12
-8.83389e-10
-6.42192e-13
-8.83782e-10
3.93639e-13
-8.84938e-10
1.15596e-12
-8.86686e-10
1.74811e-12
-8.88857e-10
2.17023e-12
-8.91306e-10
2.44927e-12
-8.93916e-10
2.61012e-12
-8.96592e-10
2.67643e-12
-8.99263e-10
2.67076e-12
-9.01878e-10
2.61461e-12
-9.04406e-10
2.52798e-12
-9.06835e-10
2.42881e-12
-9.09166e-10
2.33168e-12
-9.11412e-10
2.24621e-12
-9.13587e-10
2.17466e-12
-9.15696e-10
2.10923e-12
-9.17725e-10
2.02905e-12
-9.19622e-10
1.89702e-12
-9.2128e-10
1.65719e-12
-9.22512e-10
1.23217e-12
-9.23052e-10
5.39923e-13
-9.22473e-10
-5.78997e-13
-9.20225e-10
-2.2475e-12
-9.15593e-10
-4.63208e-12
-9.07596e-10
-7.99748e-12
-8.94895e-10
-1.27009e-11
-8.75415e-10
-1.94793e-11
-8.44832e-10
-3.05831e-11
-7.97983e-10
-4.68493e-11
-1.0078e-10
-6.97203e-10
7.80635e-11
-1.23201e-10
2.41949e-10
-2.72823e-10
4.37674e-10
-3.40051e-10
6.22606e-10
-3.38971e-10
7.62109e-10
-2.83216e-10
8.28793e-10
-1.85051e-10
8.01591e-10
-5.50042e-11
6.64659e-10
9.83051e-11
4.06496e-10
2.68e-10
1.87797e-11
4.48812e-10
-5.04192e-10
6.36925e-10
-1.16639e-09
8.29714e-10
-1.97058e-09
1.02552e-09
-2.91881e-09
1.22344e-09
-4.01269e-09
1.42309e-09
-5.2536e-09
1.62439e-09
-6.64277e-09
1.82739e-09
-8.1812e-09
2.0321e-09
-9.8695e-09
2.23829e-09
-1.17077e-08
2.44542e-09
-1.36949e-08
2.65248e-09
-1.58288e-08
2.85797e-09
-1.81056e-08
3.05982e-09
-2.05195e-08
3.25539e-09
-2.3062e-08
3.4415e-09
-2.57222e-08
3.61448e-09
-2.84859e-08
3.77023e-09
-3.13361e-08
3.90432e-09
-3.42521e-08
4.01214e-09
-3.72102e-08
4.08897e-09
-4.01835e-08
4.1302e-09
-4.31421e-08
4.13143e-09
-4.60537e-08
4.08864e-09
-4.88835e-08
3.99838e-09
-5.15955e-08
3.85789e-09
-5.41525e-08
3.66522e-09
-5.65173e-08
3.41939e-09
-5.8653e-08
3.12047e-09
-6.0524e-08
2.76962e-09
-6.20968e-08
2.36913e-09
-6.33409e-08
1.92242e-09
-6.42289e-08
1.43398e-09
-6.4738e-08
9.09271e-10
-6.48497e-08
3.54725e-10
-6.45504e-08
-2.22683e-10
-6.38327e-08
-8.15643e-10
-6.26937e-08
-1.41548e-09
-6.11368e-08
-2.01423e-09
-5.91706e-08
-2.60381e-09
-5.68086e-08
-3.17645e-09
-5.40692e-08
-3.72484e-09
-5.09749e-08
-4.24237e-09
-4.75519e-08
-4.72325e-09
-4.38295e-08
-5.16266e-09
-3.98389e-08
-5.55679e-09
-3.56132e-08
-5.90292e-09
-3.11864e-08
-6.19938e-09
-2.65927e-08
-6.44547e-09
-2.1866e-08
-6.64139e-09
-1.70395e-08
-6.78803e-09
-1.21454e-08
-6.88679e-09
-7.21494e-09
-6.93938e-09
-2.27784e-09
-6.94748e-09
2.63684e-09
-6.91256e-09
7.50056e-09
-6.83563e-09
1.22853e-08
-6.71732e-09
1.69633e-08
-6.55785e-09
2.15061e-08
-6.35671e-09
2.58842e-08
-6.11263e-09
3.0067e-08
-5.82378e-09
3.40218e-08
-5.48795e-09
3.77144e-08
-5.10284e-09
4.11088e-08
-4.66643e-09
4.41678e-08
-4.17735e-09
4.68536e-08
-3.63534e-09
4.91288e-08
-3.04167e-09
5.09576e-08
-2.39955e-09
5.23076e-08
-1.7145e-09
5.31513e-08
-9.94558e-10
5.34682e-08
-2.5007e-10
5.32467e-08
5.04655e-10
5.24859e-08
1.25469e-09
5.11969e-08
1.98263e-09
4.94039e-08
2.66995e-09
4.71448e-08
3.298e-09
4.44706e-08
3.84898e-09
4.14445e-08
4.30715e-09
3.81399e-08
4.65993e-09
3.46373e-08
4.89894e-09
3.10211e-08
5.02073e-09
2.73759e-08
5.02711e-09
2.37822e-08
4.92508e-09
2.0313e-08
4.72624e-09
1.70312e-08
4.44586e-09
1.39868e-08
4.10166e-09
1.12163e-08
3.71253e-09
8.74217e-09
3.29737e-09
6.57332e-09
2.87421e-09
4.70609e-09
2.45957e-09
3.1257e-09
2.06805e-09
1.80796e-09
1.7119e-09
7.21436e-10
1.40056e-09
-1.70082e-10
1.14016e-09
-9.0475e-10
9.33007e-10
-1.51973e-09
7.77411e-10
-2.04853e-09
6.68055e-10
-2.51902e-09
5.9685e-10
-2.95217e-09
5.54046e-10
-3.36177e-09
5.29525e-10
-3.75493e-09
5.13953e-10
-4.13324e-09
4.9961e-10
-4.49413e-09
4.80821e-10
-4.83242e-09
4.54023e-10
-5.14165e-09
4.1756e-10
-5.41522e-09
3.71335e-10
-5.64724e-09
3.16407e-10
-5.83304e-09
2.546e-10
-5.96959e-09
1.88181e-10
-6.05553e-09
1.19588e-10
-6.09124e-09
5.12342e-11
-6.07867e-09
-1.46519e-11
-6.02115e-09
-7.61389e-11
-5.92314e-09
-1.31614e-10
-5.78993e-09
-1.79899e-10
-5.62737e-09
-2.20201e-10
-5.44159e-09
-2.52123e-10
-5.2387e-09
-2.75632e-10
-5.02464e-09
-2.91014e-10
-4.80492e-09
-2.98813e-10
-4.58451e-09
-2.99774e-10
-4.36775e-09
-2.9478e-10
-4.15827e-09
-2.84789e-10
-3.95901e-09
-2.70782e-10
-3.7722e-09
-2.53719e-10
-3.59942e-09
-2.345e-10
-3.44165e-09
-2.13943e-10
-3.29936e-09
-1.92761e-10
-3.17259e-09
-1.71561e-10
-3.061e-09
-1.50836e-10
-2.96397e-09
-1.30973e-10
-2.88067e-09
-1.12261e-10
-2.81012e-09
-9.49002e-11
-2.75126e-09
-7.90146e-11
-2.70296e-09
-6.46651e-11
-2.66411e-09
-5.18617e-11
-2.63358e-09
-4.05738e-11
-2.61033e-09
-3.07414e-11
-2.59334e-09
-2.22826e-11
-2.58167e-09
-1.51022e-11
-2.57447e-09
-9.09705e-12
-2.57096e-09
-4.15654e-12
-2.5704e-09
-1.6282e-13
-2.57221e-09
2.96539e-12
-2.57582e-09
5.35496e-12
-2.58075e-09
7.1006e-12
-2.58659e-09
8.29664e-12
-2.59302e-09
9.03498e-12
-2.59975e-09
9.40343e-12
-2.60656e-09
9.48585e-12
-2.61331e-09
9.36149e-12
-2.61988e-09
9.10363e-12
-2.62623e-09
8.77694e-12
-2.63233e-09
8.43268e-12
-2.63819e-09
8.10255e-12
-2.6438e-09
7.79028e-12
-2.64916e-09
7.46127e-12
-2.65416e-09
7.03199e-12
-2.65862e-09
6.35886e-12
-2.66219e-09
5.22925e-12
-2.66431e-09
3.35392e-12
-2.66415e-09
3.77555e-13
-2.66055e-09
-4.182e-12
-2.65196e-09
-1.08395e-11
-2.63633e-09
-2.0259e-11
-2.61103e-09
-3.33009e-11
-2.57252e-09
-5.12066e-11
-2.51576e-09
-7.6243e-11
-2.43308e-09
-1.13257e-10
-2.31055e-09
-1.6938e-10
-2.83052e-10
-2.12828e-09
5.8094e-11
-1.81295e-10
1.58748e-10
-3.73477e-10
2.44435e-10
-4.25737e-10
2.70095e-10
-3.64632e-10
1.99491e-10
-2.12612e-10
3.34769e-12
1.10923e-11
-3.41319e-10
2.89663e-10
-8.52958e-10
6.09944e-10
-1.54584e-09
9.6088e-10
-2.43102e-09
1.334e-09
-3.51704e-09
1.72294e-09
-4.81045e-09
2.12312e-09
-6.31632e-09
2.53139e-09
-8.03854e-09
2.94567e-09
-9.98003e-09
3.36457e-09
-1.21428e-08
3.78711e-09
-1.45277e-08
4.21235e-09
-1.71347e-08
4.6391e-09
-1.99621e-08
5.06567e-09
-2.30064e-08
5.48968e-09
-2.62617e-08
5.90785e-09
-2.97197e-08
6.31594e-09
-3.33685e-08
6.70866e-09
-3.71929e-08
7.07978e-09
-4.11735e-08
7.42212e-09
-4.52868e-08
7.72777e-09
-4.95049e-08
7.98825e-09
-5.37953e-08
8.19476e-09
-5.81216e-08
8.33846e-09
-6.24434e-08
8.41071e-09
-6.67166e-08
8.40347e-09
-7.08947e-08
8.3095e-09
-7.49288e-08
8.12271e-09
-7.87688e-08
7.83841e-09
-8.23644e-08
7.45355e-09
-8.56661e-08
6.96686e-09
-8.86257e-08
6.37903e-09
-9.1198e-08
5.69277e-09
-9.33412e-08
4.91279e-09
-9.50178e-08
4.04578e-09
-9.61957e-08
3.10028e-09
-9.68482e-08
2.08651e-09
-9.69551e-08
1.01613e-09
-9.65025e-08
-9.78669e-11
-9.54833e-08
-1.2419e-09
-9.38977e-08
-2.40124e-09
-9.17519e-08
-3.56128e-09
-8.90586e-08
-4.70755e-09
-8.58363e-08
-5.82608e-09
-8.21091e-08
-6.90367e-09
-7.79057e-08
-7.92821e-09
-7.32591e-08
-8.88895e-09
-6.82057e-08
-9.7767e-09
-6.27843e-08
-1.0584e-08
-5.70359e-08
-1.13052e-08
-5.10024e-08
-1.19365e-08
-4.47259e-08
-1.24759e-08
-3.82485e-08
-1.29229e-08
-3.16111e-08
-1.32787e-08
-2.48537e-08
-1.35454e-08
-1.80145e-08
-1.3726e-08
-1.11302e-08
-1.38237e-08
-4.23577e-09
-1.38419e-08
2.63488e-09
-1.37832e-08
9.44851e-09
-1.36493e-08
1.61721e-08
-1.3441e-08
2.27727e-08
-1.31584e-08
2.92162e-08
-1.28002e-08
3.54667e-08
-1.23632e-08
4.14863e-08
-1.18434e-08
4.7234e-08
-1.12357e-08
5.26658e-08
-1.05347e-08
5.77345e-08
-9.73513e-09
6.23899e-08
-8.83278e-09
6.65796e-08
-7.82499e-09
7.02496e-08
-6.71169e-09
7.33462e-08
-5.4961e-09
7.58172e-08
-4.18553e-09
7.76146e-08
-2.79196e-09
7.8697e-08
-1.33252e-09
7.90316e-08
1.70104e-10
7.85982e-08
1.68809e-09
7.73916e-08
3.18926e-09
7.54237e-08
4.63781e-09
7.27258e-08
5.99592e-09
6.93492e-08
7.22555e-09
6.53657e-08
8.29067e-09
6.08658e-08
9.15981e-09
5.59564e-08
9.80837e-09
5.07563e-08
1.02208e-08
4.53912e-08
1.03922e-08
3.99875e-08
1.03287e-08
3.46664e-08
1.00474e-08
2.95374e-08
9.57485e-09
2.46942e-08
8.94489e-09
2.02106e-08
8.1961e-09
1.61389e-08
7.36908e-09
1.2509e-08
6.50405e-09
9.32964e-09
5.63896e-09
6.58973e-09
4.80796e-09
4.26147e-09
4.04016e-09
2.30374e-09
3.35829e-09
6.66264e-10
2.77763e-09
-7.05764e-10
2.30503e-09
-1.86702e-09
1.93867e-09
-2.86778e-09
1.66882e-09
-3.75071e-09
1.47977e-09
-4.54887e-09
1.35221e-09
-5.28517e-09
1.26582e-09
-5.97285e-09
1.20164e-09
-6.61707e-09
1.14382e-09
-7.21678e-09
1.08053e-09
-7.76689e-09
1.00414e-09
-8.26024e-09
9.10909e-10
-8.68918e-09
8.00275e-10
-9.04686e-09
6.74084e-10
-9.32807e-09
5.35805e-10
-9.52974e-09
3.89855e-10
-9.6512e-09
2.41043e-10
-9.69411e-09
9.41448e-11
-9.66234e-09
-4.64199e-11
-9.56166e-09
-1.76814e-10
-9.39937e-09
-2.93912e-10
-9.18386e-09
-3.95401e-10
-8.92428e-09
-4.79787e-10
-8.63003e-09
-5.46369e-10
-8.31048e-09
-5.95181e-10
-7.97461e-09
-6.26889e-10
-7.63074e-09
-6.42684e-10
-7.28636e-09
-6.44151e-10
-6.94799e-09
-6.33146e-10
-6.62111e-09
-6.11675e-10
-6.3101e-09
-5.81786e-10
-6.01835e-09
-5.45477e-10
-5.74822e-09
-5.04625e-10
-5.50123e-09
-4.60932e-10
-5.2781e-09
-4.15893e-10
-5.07888e-09
-3.70777e-10
-4.9031e-09
-3.26622e-10
-4.74982e-09
-2.84247e-10
-4.61782e-09
-2.44265e-10
-4.50561e-09
-2.07106e-10
-4.41159e-09
-1.73042e-10
-4.33404e-09
-1.42211e-10
-4.27126e-09
-1.14642e-10
-4.22156e-09
-9.02798e-11
-4.18329e-09
-6.90051e-11
-4.15492e-09
-5.0652e-11
-4.135e-09
-3.50232e-11
-4.1222e-09
-2.19027e-11
-4.11529e-09
-1.10638e-11
-4.11317e-09
-2.27737e-12
-4.11489e-09
4.67825e-12
-4.11956e-09
1.00278e-11
-4.12644e-09
1.39822e-11
-4.13489e-09
1.67441e-11
-4.14436e-09
1.8508e-11
-4.15442e-09
1.946e-11
-4.16471e-09
1.9777e-11
-4.17497e-09
1.96258e-11
-4.18503e-09
1.91592e-11
-4.19476e-09
1.85103e-11
-4.20411e-09
1.77827e-11
-4.21305e-09
1.7037e-11
-4.22153e-09
1.6273e-11
-4.22948e-09
1.54093e-11
-4.23671e-09
1.42602e-11
-4.24286e-09
1.2514e-11
-4.24735e-09
9.71457e-12
-4.24924e-09
5.24868e-12
-4.24721e-09
-1.65772e-12
-4.23943e-09
-1.19592e-11
-4.2235e-09
-2.67728e-11
-4.1963e-09
-4.74507e-11
-4.15391e-09
-7.56901e-11
-4.09127e-09
-1.13846e-10
-4.00175e-09
-1.65765e-10
-3.87656e-09
-2.38449e-10
-3.70179e-09
-3.44151e-10
-5.05745e-10
-3.4791e-09
5.18247e-12
-1.86477e-10
-3.56542e-11
-3.3264e-10
-1.68926e-10
-2.92465e-10
-4.3179e-10
-1.01768e-10
-8.54222e-10
2.0982e-10
-1.46041e-09
6.17278e-10
-2.2704e-09
1.09966e-09
-3.30025e-09
1.63979e-09
-4.56322e-09
2.22385e-09
-6.07026e-09
2.84103e-09
-7.83036e-09
3.48304e-09
-9.85089e-09
4.14365e-09
-1.21377e-08
4.81822e-09
-1.46953e-08
5.50321e-09
-1.75264e-08
6.1957e-09
-2.06322e-08
6.89296e-09
-2.40119e-08
7.59203e-09
-2.76621e-08
8.28929e-09
-3.15767e-08
8.98023e-09
-3.57461e-08
9.65912e-09
-4.01571e-08
1.03189e-08
-4.47921e-08
1.09509e-08
-4.96288e-08
1.15454e-08
-5.464e-08
1.2091e-08
-5.97933e-08
1.25754e-08
-6.50512e-08
1.29857e-08
-7.03715e-08
1.33085e-08
-7.5707e-08
1.35303e-08
-8.10069e-08
1.36384e-08
-8.6217e-08
1.36208e-08
-9.12807e-08
1.34672e-08
-9.61401e-08
1.31689e-08
-1.00737e-07
1.27196e-08
-1.05014e-07
1.21154e-08
-1.08916e-07
1.13552e-08
-1.1239e-07
1.04408e-08
-1.15387e-07
9.37667e-09
-1.17865e-07
8.1705e-09
-1.19785e-07
6.83256e-09
-1.21115e-07
5.3757e-09
-1.21829e-07
3.81508e-09
-1.21911e-07
2.16782e-09
-1.21347e-07
4.52712e-10
-1.20135e-07
-1.31015e-09
-1.18277e-07
-3.10005e-09
-1.15782e-07
-4.89584e-09
-1.12667e-07
-6.67664e-09
-1.08952e-07
-8.42214e-09
-1.04665e-07
-1.0113e-08
-9.98378e-08
-1.17313e-08
-9.45052e-08
-1.32608e-08
-8.87068e-08
-1.46873e-08
-8.24844e-08
-1.59991e-08
-7.58818e-08
-1.71866e-08
-6.89437e-08
-1.82433e-08
-6.17152e-08
-1.91649e-08
-5.42412e-08
-1.99499e-08
-4.65655e-08
-2.05987e-08
-3.87303e-08
-2.11139e-08
-3.07761e-08
-2.14996e-08
-2.27413e-08
-2.17608e-08
-1.46621e-08
-2.19029e-08
-6.57275e-09
-2.19312e-08
1.49397e-09
-2.18499e-08
9.50659e-09
-2.16619e-08
1.74337e-08
-2.1368e-08
2.52431e-08
-2.09679e-08
3.29017e-08
-2.04587e-08
4.0374e-08
-1.98354e-08
4.76214e-08
-1.90908e-08
5.46018e-08
-1.82161e-08
6.12688e-08
-1.72016e-08
6.75712e-08
-1.60376e-08
7.34537e-08
-1.47152e-08
7.88563e-08
-1.32276e-08
8.37158e-08
-1.15712e-08
8.79668e-08
-9.7471e-09
9.15431e-08
-7.76179e-09
9.43798e-08
-5.62872e-09
9.64163e-08
-3.36894e-09
9.75982e-08
-1.01183e-09
9.7882e-08
1.40432e-09
9.72378e-08
3.83344e-09
9.56538e-08
6.22182e-09
9.31392e-08
8.51054e-09
8.97271e-08
1.06376e-08
8.54768e-08
1.2541e-08
8.04737e-08
1.41629e-08
7.48288e-08
1.54533e-08
6.86749e-08
1.63747e-08
6.2162e-08
1.69052e-08
5.54496e-08
1.70411e-08
4.8699e-08
1.6798e-08
4.20644e-08
1.62094e-08
3.56851e-08
1.53242e-08
2.96782e-08
1.4203e-08
2.41342e-08
1.29131e-08
1.9114e-08
1.15242e-08
1.46489e-08
1.0104e-08
1.07419e-08
8.71498e-09
7.37089e-09
7.41116e-09
4.49349e-09