/*--------------------------------*- C++ -*----------------------------------*\
  =========                 |
  \\      /  F ield         | OpenFOAM: The Open Source CFD Toolbox
   \\    /   O peration     | Website:  https://openfoam.org
    \\  /    A nd           | Version:  8
     \\/     M anipulation  |
\*---------------------------------------------------------------------------*/
FoamFile
{
    version     2.0;
    format      ascii;
    class       volVectorField;
    location    "0.88";
    object      U;
}
// * * * * * * * * * * * * * * * * * * * * * * * * * * * * * * * * * * * * * //

dimensions      [0 1 -1 0 0 0 0];

internalField   nonuniform List<vector> 
12225
(
(-7.35721e-06 9.99883e-07 0)
(-3.54871e-06 -5.52932e-07 0)
(2.82026e-05 -1.41222e-06 0)
(7.9608e-05 -2.16618e-06 0)
(0.000146953 -2.80807e-06 0)
(0.000227127 -3.41563e-06 0)
(0.000318325 -4.01454e-06 0)
(0.000419264 -4.63177e-06 0)
(0.000529086 -5.2946e-06 0)
(0.000647318 -6.04677e-06 0)
(0.000773965 -6.96294e-06 0)
(0.000909633 -8.17188e-06 0)
(0.00105564 -9.90343e-06 0)
(0.00121345 -1.25136e-05 0)
(0.00138187 -1.5694e-05 0)
(0.00155136 -1.42925e-05 0)
(0.00164121 -1.67256e-05 0)
(5.89117e-05 0.00107351 0)
(-1.50767e-05 2.5853e-06 0)
(5.18063e-06 -8.61158e-06 0)
(0.000101317 -1.96701e-05 0)
(0.000253617 -2.92099e-05 0)
(0.000451714 -3.76703e-05 0)
(0.000686796 -4.55363e-05 0)
(0.000953256 -5.31187e-05 0)
(0.00124681 -6.06208e-05 0)
(0.00156413 -6.82173e-05 0)
(0.00190252 -7.61246e-05 0)
(0.00225978 -8.46335e-05 0)
(0.00263377 -9.40605e-05 0)
(0.00302089 -0.000104429 0)
(0.00341074 -0.000114025 0)
(0.00377091 -0.000112511 0)
(0.00399813 -4.75452e-05 0)
(0.0037969 0.000302943 0)
(0.000737378 0.00269223 0)
(-1.75009e-05 3.08822e-06 0)
(2.84523e-05 -2.74883e-05 0)
(0.000192187 -5.93518e-05 0)
(0.000446231 -8.71859e-05 0)
(0.000774339 -0.00011205 0)
(0.00116237 -0.000135081 0)
(0.00160065 -0.000157062 0)
(0.00208133 -0.000178437 0)
(0.00259764 -0.000199492 0)
(0.00314317 -0.000220451 0)
(0.00371106 -0.000241374 0)
(0.00429222 -0.000261624 0)
(0.00487084 -0.000278054 0)
(0.00541237 -0.000279195 0)
(0.0058339 -0.000224994 0)
(0.0059204 2.61762e-05 0)
(0.00521653 0.000970342 0)
(0.00159892 0.00462506 0)
(-1.59208e-05 2.62264e-07 0)
(6.43236e-05 -6.05552e-05 0)
(0.000298778 -0.000124937 0)
(0.000654583 -0.000181803 0)
(0.00111043 -0.000232831 0)
(0.00164728 -0.000279947 0)
(0.00225116 -0.000324506 0)
(0.00291006 -0.000367147 0)
(0.00361278 -0.000408047 0)
(0.00434758 -0.000446943 0)
(0.00510041 -0.000482652 0)
(0.00585136 -0.000511424 0)
(0.00656677 -0.000522311 0)
(0.00718121 -0.000484342 0)
(0.00755956 -0.000309264 0)
(0.00740952 0.00025675 0)
(0.00624292 0.00193919 0)
(0.00258468 0.00668006 0)
(-1.14454e-05 -8.51452e-06 0)
(0.000110507 -0.000111043 0)
(0.0004182 -0.000219708 0)
(0.000874614 -0.000316642 0)
(0.00145407 -0.000403912 0)
(0.00213311 -0.000484225 0)
(0.00289326 -0.000559448 0)
(0.00371783 -0.000630185 0)
(0.00459018 -0.000696023 0)
(0.00549172 -0.000755315 0)
(0.00639904 -0.000803983 0)
(0.00727857 -0.000832116 0)
(0.00807602 -0.000815451 0)
(0.00869542 -0.000694503 0)
(0.00896241 -0.000322632 0)
(0.00856042 0.000657795 0)
(0.00706958 0.00309175 0)
(0.00364494 0.00866052 0)
(-5.001e-06 -2.57188e-05 0)
(0.000164357 -0.000182465 0)
(0.000546623 -0.00034729 0)
(0.0011009 -0.000495512 0)
(0.00179764 -0.000629275 0)
(0.0026094 -0.000751911 0)
(0.00351315 -0.000865558 0)
(0.00448702 -0.000970352 0)
(0.0055081 -0.00106453 0)
(0.00654978 -0.00114378 0)
(0.00757783 -0.00119899 0)
(0.00854386 -0.00121066 0)
(0.00937361 -0.00113614 0)
(0.00994721 -0.000881872 0)
(0.0100723 -0.000243802 0)
(0.00945574 0.00120913 0)
(0.00779889 0.0043339 0)
(0.00474031 0.0104879 0)
(2.61829e-06 -5.36301e-05 0)
(0.000222891 -0.000278415 0)
(0.000679276 -0.000511412 0)
(0.00132661 -0.000722162 0)
(0.00213173 -0.000912616 0)
(0.00306362 -0.00108646 0)
(0.00409474 -0.00124568 0)
(0.00519774 -0.00138929 0)
(0.00634292 -0.00151316 0)
(0.00749498 -0.00160874 0)
(0.00860853 -0.00165959 0)
(0.00962114 -0.00163343 0)
(0.0104425 -0.00146588 0)
(0.0109398 -0.00102865 0)
(0.0109251 -7.10884e-05 0)
(0.0101613 0.0018725 0)
(0.00848173 0.00559459 0)
(0.00584404 0.0121351 0)
(1.07215e-05 -9.42625e-05 0)
(0.000282832 -0.000402226 0)
(0.000810483 -0.000715406 0)
(0.00154351 -0.000999644 0)
(0.00244513 -0.00125658 0)
(0.00348122 -0.0014899 0)
(0.00461985 -0.00170084 0)
(0.0058282 -0.00188645 0)
(0.00706969 -0.00203902 0)
(0.00830045 -0.00214411 0)
(0.00946479 -0.0021758 0)
(0.0104889 -0.00208683 0)
(0.0112731 -0.00179022 0)
(0.0116837 -0.00112734 0)
(0.011556 0.000181997 0)
(0.0107238 0.00260104 0)
(0.00913678 0.00681455 0)
(0.00693453 0.0135842 0)
(1.87069e-05 -0.000149211 0)
(0.000340679 -0.000556622 0)
(0.000933764 -0.000961775 0)
(0.00174203 -0.00132982 0)
(0.00272498 -0.0016622 0)
(0.00384578 -0.00196222 0)
(0.00506851 -0.00222964 0)
(0.00635521 -0.00245858 0)
(0.00766288 -0.00263647 0)
(0.00894007 -0.00274143 0)
(0.0101229 -0.00273648 0)
(0.0111306 -0.00255864 0)
(0.0118612 -0.00210027 0)
(0.0121921 -0.00118073 0)
(0.0119936 0.000490481 0)
(0.0111708 0.0033447 0)
(0.00976129 0.0079424 0)
(0.00798953 0.0148182 0)
(2.60402e-05 -0.000219454 0)
(0.000392794 -0.000743285 0)
(0.00104199 -0.00125168 0)
(0.00191147 -0.00171282 0)
(0.00295695 -0.00212837 0)
(0.00413936 -0.00250088 0)
(0.00541941 -0.00282785 0)
(0.00675475 -0.00309948 0)
(0.00809708 -0.00329714 0)
(0.00938921 -0.00339034 0)
(0.0105622 -0.0033304 0)
(0.0115333 -0.00303948 0)
(0.012206 -0.00239374 0)
(0.012477 -0.00120106 0)
(0.0122566 0.000821375 0)
(0.0115119 0.00405355 0)
(0.0103379 0.00893338 0)
(0.00898304 0.0158197 0)
(3.22453e-05 -0.000305235 0)
(0.000435508 -0.00096232 0)
(0.00112762 -0.00158434 0)
(0.00204032 -0.00214641 0)
(0.0031257 -0.00265117 0)
(0.00434302 -0.00310014 0)
(0.00565054 -0.00348789 0)
(0.00700275 -0.00379971 0)
(0.00834776 -0.00401004 0)
(0.00962519 -0.00407919 0)
(0.0107649 -0.00394714 0)
(0.0116871 -0.00352372 0)
(0.0123071 -0.00267497 0)
(0.0125455 -0.00120827 0)
(0.0123517 0.00113715 0)
(0.0117405 0.00468011 0)
(0.010838 0.00974832 0)
(0.0098832 0.0165701 0)
(3.6625e-05 -0.000397664 0)
(0.000462897 -0.00119092 0)
(0.00117847 -0.00192531 0)
(0.00211051 -0.00258536 0)
(0.00320818 -0.00317553 0)
(0.00442994 -0.00369641 0)
(0.00573291 -0.00413929 0)
(0.00707018 -0.00448441 0)
(0.00838865 -0.00469936 0)
(0.00962777 -0.00473614 0)
(0.0107198 -0.00452569 0)
(0.0115921 -0.00396986 0)
(0.0121741 -0.00293159 0)
(0.01241 -0.00122662 0)
(0.0122798 0.00137689 0)
(0.0118283 0.00514001 0)
(0.0111922 0.0103049 0)
(0.0105872 0.0170126 0)
(3.99891e-05 -0.000499542 0)
(0.000477995 -0.00143811 0)
(0.00120034 -0.00228905 0)
(0.00213148 -0.00304902 0)
(0.00321809 -0.00372518 0)
(0.00441867 -0.00431724 0)
(0.0056904 -0.00481304 0)
(0.00698652 -0.00518745 0)
(0.00825466 -0.00540131 0)
(0.00943658 -0.00539903 0)
(0.0104698 -0.00510431 0)
(0.0112915 -0.00441443 0)
(0.011847 -0.00319432 0)
(0.0121023 -0.00127396 0)
(0.0120624 0.00154559 0)
(0.0117909 0.0054704 0)
(0.0114232 0.0106715 0)
(0.0111477 0.0172257 0)
(4.22008e-05 -0.000625621 0)
(0.000476721 -0.00174109 0)
(0.00118177 -0.00272874 0)
(0.00208187 -0.00360367 0)
(0.00312226 -0.00437725 0)
(0.0042627 -0.00504842 0)
(0.0054623 -0.00560097 0)
(0.00667666 -0.00600371 0)
(0.00785698 -0.00621025 0)
(0.00895076 -0.00615778 0)
(0.00990455 -0.00576462 0)
(0.0106692 -0.00492736 0)
(0.0112084 -0.00351905 0)
(0.0115097 -0.00139148 0)
(0.0115981 0.00161498 0)
(0.0115473 0.00565013 0)
(0.011482 0.0108212 0)
(0.0115593 0.0171554 0)
(4.18752e-05 -0.000774531 0)
(0.000447918 -0.00209672 0)
(0.00109713 -0.00323837 0)
(0.00191871 -0.0042397 0)
(0.00285951 -0.00511862 0)
(0.00388274 -0.00587363 0)
(0.0049522 -0.00648434 0)
(0.00602917 -0.00691336 0)
(0.00707222 -0.00710755 0)
(0.0080387 -0.00699848 0)
(0.00888822 -0.00650234 0)
(0.00958812 -0.00552019 0)
(0.0101209 -0.00393974 0)
(0.0104927 -0.00164082 0)
(0.0107417 0.00149373 0)
(0.010942 0.00556074 0)
(0.0112006 0.0106146 0)
(0.0116424 0.0166463 0)
(3.72169e-05 -0.000937125 0)
(0.000377606 -0.00248299 0)
(0.000914431 -0.00378607 0)
(0.00158849 -0.00491635 0)
(0.00235394 -0.00590093 0)
(0.00318107 -0.00673879 0)
(0.0040421 -0.00740608 0)
(0.00490819 -0.00786016 0)
(0.00574966 -0.00804289 0)
(0.00653792 -0.00788318 0)
(0.00724882 -0.00729948 0)
(0.00786734 -0.00620267 0)
(0.00839311 -0.0045004 0)
(0.00884568 -0.00210369 0)
(0.0092681 0.00106352 0)
(0.00972708 0.00505252 0)
(0.0103078 0.00987736 0)
(0.0111046 0.0155053 0)
(2.63013e-05 -0.00108946 0)
(0.000251044 -0.00284316 0)
(0.000600332 -0.00429236 0)
(0.00103544 -0.0055364 0)
(0.00152643 -0.00661329 0)
(0.00205564 -0.00752402 0)
(0.00260808 -0.008243 0)
(0.00316918 -0.0087248 0)
(0.0037252 -0.00890946 0)
(0.00426491 -0.00872725 0)
(0.00478207 -0.00810329 0)
(0.00527863 -0.00696233 0)
(0.00576782 -0.00523416 0)
(0.00627655 -0.00285979 0)
(0.00684603 0.000201758 0)
(0.00752996 0.00396666 0)
(0.00839093 0.00842137 0)
(0.00949613 0.0135195 0)
(7.51667e-06 -0.00118345 0)
(5.8405e-05 -0.00306442 0)
(0.000133863 -0.00460091 0)
(0.000225024 -0.00591194 0)
(0.000327492 -0.00704474 0)
(0.000441012 -0.00800363 0)
(0.000567163 -0.00876417 0)
(0.000708969 -0.00928189 0)
(0.000871322 -0.0094993 0)
(0.00106189 -0.00935214 0)
(0.00129232 -0.00877536 0)
(0.00157956 -0.00770877 0)
(0.00194686 -0.00610233 0)
(0.00242407 -0.00392113 0)
(0.00304683 -0.0011495 0)
(0.00385434 0.00220595 0)
(0.00488805 0.00611532 0)
(0.00619214 0.0105274 0)
(-2.00269e-05 -0.00113914 0)
(-0.000191184 -0.00295966 0)
(-0.000460518 -0.00445163 0)
(-0.000800604 -0.00572956 0)
(-0.00118441 -0.00684149 0)
(-0.00159213 -0.00779486 0)
(-0.00200452 -0.00856981 0)
(-0.00240051 -0.00912777 0)
(-0.00275668 -0.00941872 0)
(-0.00304726 -0.00938775 0)
(-0.00324428 -0.00898124 0)
(-0.00331785 -0.00815233 0)
(-0.00323675 -0.00686559 0)
(-0.00296938 -0.00510057 0)
(-0.00248513 -0.00285412 0)
(-0.00175565 -0.000141224 0)
(-0.000755528 0.00300517 0)
(0.000540317 0.00653588 0)
(-3.87951e-05 -0.000936191 0)
(-0.000377152 -0.00247454 0)
(-0.000911015 -0.00376335 0)
(-0.00158755 -0.0048837 0)
(-0.00235914 -0.0058721 0)
(-0.00319387 -0.00673615 0)
(-0.00406179 -0.00746182 0)
(-0.0049307 -0.00801927 0)
(-0.0057656 -0.00836861 0)
(-0.00652912 -0.00846544 0)
(-0.00718248 -0.00826625 0)
(-0.00768667 -0.00773315 0)
(-0.00800393 -0.00683788 0)
(-0.00809928 -0.00556468 0)
(-0.00794215 -0.00391189 0)
(-0.00750759 -0.00189232 0)
(-0.00677544 0.000467357 0)
(-0.00572851 0.00312816 0)
(-4.60281e-05 -0.000709071 0)
(-0.000461468 -0.00193453 0)
(-0.00112431 -0.00299398 0)
(-0.00197192 -0.00392901 0)
(-0.00294959 -0.00476304 0)
(-0.00402134 -0.00550304 0)
(-0.00515325 -0.0061402 0)
(-0.00630892 -0.00665287 0)
(-0.00744892 -0.00701056 0)
(-0.00853127 -0.00717833 0)
(-0.00951252 -0.00712118 0)
(-0.0103494 -0.00680804 0)
(-0.0110004 -0.00621512 0)
(-0.0114279 -0.00532836 0)
(-0.0115999 -0.00414477 0)
(-0.0114909 -0.00267271 0)
(-0.0110818 -0.000931379 0)
(-0.0103578 0.00105014 0)
(-4.46857e-05 -0.000490506 0)
(-0.000471678 -0.00141031 0)
(-0.00116744 -0.00223806 0)
(-0.00206973 -0.00297877 0)
(-0.00312475 -0.00364467 0)
(-0.00429662 -0.0042422 0)
(-0.00555111 -0.00476715 0)
(-0.00685178 -0.00520516 0)
(-0.00815919 -0.00553431 0)
(-0.00943119 -0.00572835 0)
(-0.0106239 -0.00576013 0)
(-0.011693 -0.0056048 0)
(-0.0125962 -0.00524248 0)
(-0.0132944 -0.00466035 0)
(-0.013754 -0.00385382 0)
(-0.0139482 -0.00282687 0)
(-0.0138569 -0.00159182 0)
(-0.0134654 -0.000168946 0)
(-3.71114e-05 -0.000308681 0)
(-0.000427816 -0.000964521 0)
(-0.00108644 -0.00158243 0)
(-0.00195717 -0.00214085 0)
(-0.00299115 -0.00264471 0)
(-0.00415449 -0.00310026 0)
(-0.0054148 -0.00350675 0)
(-0.00673813 -0.0038556 0)
(-0.00808803 -0.00413199 0)
(-0.0094253 -0.00431715 0)
(-0.0107087 -0.00439095 0)
(-0.0118961 -0.0043343 0)
(-0.0129465 -0.00413128 0)
(-0.0138214 -0.00377073 0)
(-0.0144869 -0.00324731 0)
(-0.0149152 -0.00256183 0)
(-0.0150849 -0.00172123 0)
(-0.0149806 -0.000738582 0)
(-2.5781e-05 -0.000173283 0)
(-0.000351319 -0.000618728 0)
(-0.000929437 -0.001059 0)
(-0.00171286 -0.00145853 0)
(-0.00265887 -0.00181883 0)
(-0.0037362 -0.00214597 0)
(-0.00491547 -0.00244138 0)
(-0.00616679 -0.0027006 0)
(-0.00745841 -0.00291422 0)
(-0.00875608 -0.0030695 0)
(-0.0100233 -0.00315226 0)
(-0.0112223 -0.00314863 0)
(-0.0123154 -0.00304654 0)
(-0.0132666 -0.00283697 0)
(-0.0140436 -0.00251476 0)
(-0.0146187 -0.00207898 0)
(-0.0149699 -0.00153289 0)
(-0.0150815 -0.000884227 0)
(-1.29867e-05 -8.26367e-05 0)
(-0.000261106 -0.00036988 0)
(-0.000737608 -0.00066696 0)
(-0.00140316 -0.000935839 0)
(-0.00222081 -0.00117729 0)
(-0.00316224 -0.0013969 0)
(-0.00420182 -0.00159709 0)
(-0.00531454 -0.00177595 0)
(-0.00647421 -0.00192791 0)
(-0.00765253 -0.00204484 0)
(-0.00881895 -0.00211733 0)
(-0.00994131 -0.00213592 0)
(-0.0109869 -0.00209209 0)
(-0.011924 -0.00197913 0)
(-0.012723 -0.00179273 0)
(-0.0133581 -0.00153129 0)
(-0.0138079 -0.00119597 0)
(-0.0140571 -0.000790794 0)
(-7.36729e-07 -2.91831e-05 0)
(-0.000172145 -0.000202859 0)
(-0.000542062 -0.000389353 0)
(-0.00107727 -0.000556551 0)
(-0.00174594 -0.000705626 0)
(-0.00252317 -0.000841228 0)
(-0.00338767 -0.000965802 0)
(-0.0043196 -0.00107882 0)
(-0.0052986 -0.00117723 0)
(-0.00630255 -0.00125622 0)
(-0.00730733 -0.00131003 0)
(-0.00828703 -0.00133269 0)
(-0.00921488 -0.00131869 0)
(-0.0100642 -0.00126351 0)
(-0.0108099 -0.001164 0)
(-0.011429 -0.00101862 0)
(-0.0119022 -0.000827483 0)
(-0.0122156 -0.000592346 0)
(9.18994e-06 -3.16227e-06 0)
(-9.52686e-05 -9.87589e-05 0)
(-0.000363795 -0.000203909 0)
(-0.0007677 -0.000296704 0)
(-0.00128021 -0.000378682 0)
(-0.00188057 -0.000453191 0)
(-0.00255223 -0.000522114 0)
(-0.00328049 -0.000585488 0)
(-0.00405058 -0.000641822 0)
(-0.00484641 -0.000688559 0)
(-0.00565012 -0.00072254 0)
(-0.00644225 -0.00074042 0)
(-0.00720226 -0.00073903 0)
(-0.00790936 -0.000715685 0)
(-0.00854342 -0.000668402 0)
(-0.00908583 -0.000596052 0)
(-0.0095203 -0.000498389 0)
(-0.00983504 -0.00037596 0)
(1.51208e-05 5.22948e-06 0)
(-3.75683e-05 -3.96707e-05 0)
(-0.000215117 -8.9212e-05 0)
(-0.000493203 -0.000132005 0)
(-0.000850822 -0.000169399 0)
(-0.00127227 -0.000203344 0)
(-0.00174589 -0.000234951 0)
(-0.00226186 -0.000264379 0)
(-0.0028105 -0.000291019 0)
(-0.00338118 -0.000313739 0)
(-0.00396193 -0.000331092 0)
(-0.00453947 -0.00034152 0)
(-0.00509952 -0.000343516 0)
(-0.00562734 -0.000335768 0)
(-0.00610842 -0.000317263 0)
(-0.00652906 -0.000287359 0)
(-0.00687693 -0.000245809 0)
(-0.00714308 -0.000192621 0)
(1.53453e-05 4.74955e-06 0)
(-3.02083e-06 -1.08258e-05 0)
(-0.000101624 -2.73123e-05 0)
(-0.000262352 -4.11384e-05 0)
(-0.000471311 -5.30464e-05 0)
(-0.000718648 -6.38372e-05 0)
(-0.000997555 -7.39607e-05 0)
(-0.0013026 -8.35152e-05 0)
(-0.0016285 -9.23307e-05 0)
(-0.00196943 -0.000100054 0)
(-0.00231871 -0.000106221 0)
(-0.00266875 -0.000110321 0)
(-0.00301126 -0.000111854 0)
(-0.00333755 -0.000110369 0)
(-0.00363889 -0.000105508 0)
(-0.00390691 -9.70233e-05 0)
(-0.00413384 -8.47754e-05 0)
(-0.00431402 -6.86262e-05 0)
(8.22952e-06 1.68127e-06 0)
(6.92793e-06 -5.26149e-07 0)
(-2.40772e-05 -1.89558e-06 0)
(-7.68098e-05 -2.96944e-06 0)
(-0.000146029 -3.85544e-06 0)
(-0.00022824 -4.65557e-06 0)
(-0.000321219 -5.42013e-06 0)
(-0.000423295 -6.1644e-06 0)
(-0.000532881 -6.87905e-06 0)
(-0.000648195 -7.53859e-06 0)
(-0.000767142 -8.10723e-06 0)
(-0.00088729 -8.54444e-06 0)
(-0.00100592 -8.80863e-06 0)
(-0.00112012 -8.8614e-06 0)
(-0.00122693 -8.67026e-06 0)
(-0.00132345 -8.2148e-06 0)
(-0.00140688 -7.45337e-06 0)
(-0.00147517 -6.34435e-06 0)
(1.20324e-05 -2.79885e-05 7.18779e-24)
(8.31738e-05 -6.4338e-05 -9.50194e-24)
(0.000196655 -8.4703e-05 0)
(0.000333108 -9.23319e-05 0)
(0.000469212 -9.12243e-05 0)
(0.00058852 -8.42389e-05 8.04091e-24)
(0.000679738 -7.35453e-05 0)
(0.000734983 -6.08027e-05 0)
(0.000748905 -4.71982e-05 0)
(0.00071815 -3.34988e-05 0)
(0.000640804 -2.01783e-05 -1.26292e-24)
(0.000515869 -7.46435e-06 0)
(0.000342914 4.59757e-06 0)
(0.000121782 1.6083e-05 0)
(-0.000147653 2.7146e-05 0)
(-0.000465615 3.7992e-05 9.27395e-24)
(-0.000832505 4.88429e-05 0)
(-0.00124894 5.99178e-05 0)
(-0.00171571 7.14147e-05 0)
(-0.00223372 8.34965e-05 0)
(-0.00280388 9.62816e-05 0)
(-0.00342697 0.000109836 0)
(-0.00410349 0.000124172 0)
(-0.0048335 0.000139239 3.05848e-23)
(-0.00561645 0.000154933 -3.33091e-23)
(-0.00645101 0.000171087 3.59511e-23)
(-0.00733494 0.000187482 3.84684e-23)
(-0.00826493 0.000203843 0)
(-0.00923649 0.000219844 0)
(-0.0102439 0.000235117 -4.47779e-23)
(-0.01128 0.000249254 -4.62812e-23)
(-0.0123364 0.000261817 0)
(-0.0134034 0.000272348 0)
(-0.0144699 0.000280384 -4.81401e-23)
(-0.0155238 0.000285466 0)
(-0.0165519 0.000287164 0)
(-0.01754 0.000285088 4.47584e-23)
(-0.0184738 0.000278912 0)
(-0.0193381 0.000268386 3.89191e-23)
(-0.0201183 0.000253361 6.96535e-23)
(-0.0207996 0.000233797 0)
(-0.0213683 0.000209777 0)
(-0.0218114 0.000181506 0)
(-0.0221177 0.000149315 0)
(-0.0222773 0.000113689 0)
(-0.022282 7.53021e-05 -1.1454e-23)
(-0.0221261 3.45942e-05 -2.94523e-23)
(-0.0218064 -7.65303e-06 -4.82935e-23)
(-0.0213218 -5.05809e-05 0)
(-0.0206739 -9.33622e-05 8.75814e-23)
(-0.0198666 -0.000135193 0)
(-0.018906 -0.000175311 -1.2729e-22)
(-0.0178005 -0.000213016 -1.46617e-22)
(-0.0165602 -0.000247702 0)
(-0.0151969 -0.000278871 0)
(-0.0137235 -0.000306143 0)
(-0.0121538 -0.000329265 -2.14047e-22)
(-0.0105024 -0.000348107 0)
(-0.00878391 -0.000362648 0)
(-0.0070129 -0.000372962 0)
(-0.00520381 -0.000379196 0)
(-0.00337063 -0.000381535 0)
(-0.00152697 -0.000380132 0)
(0.000314061 -0.000375017 0)
(0.00214004 -0.0003663 0)
(0.00393869 -0.000354302 2.49339e-22)
(0.00569766 -0.000339324 0)
(0.0074047 -0.000321512 0)
(0.00904741 -0.000300918 -2.15725e-22)
(0.010613 -0.000277557 -2.00503e-22)
(0.0120883 -0.000251432 0)
(0.0134595 -0.00022257 1.65133e-22)
(0.0147122 -0.000191047 -1.45444e-22)
(0.015832 -0.000157022 0)
(0.0168043 -0.000120766 1.03392e-22)
(0.0176151 -8.26826e-05 0)
(0.0182515 -4.33195e-05 0)
(0.0187019 -3.37203e-06 -3.82687e-23)
(0.0189577 3.6297e-05 0)
(0.0190129 7.46864e-05 -2.62955e-24)
(0.0188654 0.000110963 0)
(0.0185181 0.000144043 3.84775e-23)
(0.017978 0.000172972 5.38263e-23)
(0.0172574 0.000196935 6.71865e-23)
(0.0163736 0.000215289 1.56852e-22)
(0.0153484 0.000227629 -1.74958e-22)
(0.0142075 0.000233819 0)
(0.0129797 0.000234016 0)
(0.0116957 0.00022865 0)
(0.0103865 0.000218393 -2.05673e-22)
(0.00908209 0.000204103 -2.04457e-22)
(0.00781045 0.000186748 2.0059e-22)
(0.00659608 0.000167335 0)
(0.00545926 0.000146827 -1.87014e-22)
(0.00441558 0.000126086 -1.78325e-22)
(0.00347573 0.000105834 -1.68987e-22)
(0.00264563 8.66353e-05 0)
(0.00192674 6.89179e-05 0)
(0.00131652 5.29977e-05 0)
(0.00080888 3.91143e-05 -1.3213e-22)
(0.000394718 2.74514e-05 0)
(6.24683e-05 1.81343e-05 0)
(-0.000201181 1.12089e-05 1.1106e-22)
(-0.00041043 6.60647e-06 0)
(-0.000579366 4.11965e-06 0)
(-0.000720969 3.41096e-06 9.78966e-23)
(-0.000846253 4.04611e-06 0)
(-0.000963677 5.54484e-06 0)
(-0.00107889 7.44131e-06 -9.10943e-23)
(-0.00119482 9.33505e-06 -8.96578e-23)
(-0.00131208 1.09223e-05 0)
(-0.00142947 1.20062e-05 8.72865e-23)
(-0.00154461 1.2489e-05 0)
(-0.0016545 1.23545e-05 -8.49715e-23)
(-0.00175596 1.16458e-05 0)
(-0.00184605 1.04449e-05 -8.22645e-23)
(-0.00192228 8.85509e-06 -8.07061e-23)
(-0.00198275 6.98829e-06 0)
(-0.00202625 4.95558e-06 0)
(-0.00205228 2.86143e-06 0)
(-0.00206097 8.05667e-07 0)
(-0.00205304 -1.12809e-06 0)
(-0.00202974 -2.89108e-06 0)
(-0.00199271 -4.42889e-06 0)
(-0.00194389 -5.70721e-06 -6.51654e-23)
(-0.00188539 -6.71023e-06 6.325e-23)
(-0.00181941 -7.43635e-06 0)
(-0.00174813 -7.89612e-06 0)
(-0.00167363 -8.10984e-06 0)
(-0.00159783 -8.10502e-06 0)
(-0.00152244 -7.91376e-06 1.10548e-22)
(-0.00144892 -7.57034e-06 0)
(-0.00137848 -7.10919e-06 -1.0584e-22)
(-0.00131205 -6.56316e-06 1.03813e-22)
(-0.00125035 -5.96227e-06 0)
(-0.00119384 -5.33293e-06 0)
(-0.00114278 -4.69743e-06 0)
(-0.00109725 -4.07387e-06 -9.74001e-23)
(-0.0010572 -3.47628e-06 -9.61038e-23)
(-0.00102245 -2.91495e-06 0)
(-0.000992741 -2.39684e-06 -9.37244e-23)
(-0.000967733 -1.92607e-06 -9.26034e-23)
(-0.000947057 -1.50445e-06 9.15063e-23)
(-0.000930316 -1.13195e-06 0)
(-0.000917107 -8.07145e-07 0)
(-0.000907026 -5.27592e-07 8.82325e-23)
(-0.000899686 -2.90158e-07 0)
(-0.000894716 -9.12332e-08 0)
(-0.00089177 7.31776e-08 0)
(-0.000890526 2.06196e-07 0)
(-0.000890691 3.02949e-07 -8.23567e-23)
(-0.000892016 3.63037e-07 -8.10816e-23)
(-0.000894259 4.29545e-07 0)
(-0.000897199 4.75304e-07 -7.84229e-23)
(-0.000900667 5.02681e-07 0)
(-0.000904509 5.167e-07 0)
(-0.000908592 5.20471e-07 -7.41777e-23)
(-0.000912811 5.16498e-07 0)
(-0.000917081 5.07068e-07 -7.11955e-23)
(-0.00092134 4.94311e-07 0)
(-0.000925549 4.80207e-07 0)
(-0.000929685 4.66545e-07 -6.65343e-23)
(-0.000933744 4.54841e-07 0)
(-0.000937735 4.46188e-07 -6.33214e-23)
(-0.000941672 4.41054e-07 0)
(-0.00094557 4.3903e-07 0)
(-0.000949426 4.38545e-07 0)
(-0.000953211 4.36585e-07 5.66587e-23)
(-0.000956846 4.28304e-07 0)
(-0.000960183 4.0588e-07 -5.31845e-23)
(-0.00096299 3.6035e-07 0)
(-0.000964907 3.0521e-07 0)
(-0.000965424 2.11952e-07 0)
(-0.000963877 4.67057e-08 0)
(-0.000959383 -1.96515e-07 0)
(-0.000950752 -5.42879e-07 0)
(-0.000936185 -1.06844e-06 0)
(-0.000912428 -2.37553e-06 7.58439e-23)
(-0.000881729 -2.37342e-06 0)
(-0.000780152 -1.57522e-05 0)
(1.85454e-05 -0.000161756 -2.40508e-23)
(0.000135703 -0.000369659 3.21492e-23)
(0.000299734 -0.000476098 0)
(0.000476415 -0.000498092 -2.13474e-23)
(0.000627603 -0.000453928 0)
(0.000724714 -0.000360436 -8.6293e-24)
(0.000746448 -0.000231892 1.69436e-23)
(0.000676665 -7.97759e-05 1.46809e-23)
(0.000503316 8.70581e-05 0)
(0.000217634 0.000262115 9.1164e-24)
(-0.000186618 0.000440845 1.36097e-24)
(-0.000713778 0.000620328 0)
(-0.00136691 0.000798918 0)
(-0.00214826 0.000975914 0)
(-0.00305959 0.00115127 0)
(-0.00410243 0.00132534 -9.95294e-24)
(-0.00527812 0.00149864 0)
(-0.00658789 0.00167167 2.40534e-23)
(-0.00803273 0.00184475 0)
(-0.0096132 0.00201786 0)
(-0.0113292 0.00219058 -3.98242e-23)
(-0.0131796 0.00236204 0)
(-0.015162 0.00253083 5.08664e-23)
(-0.0172723 0.00269503 -3.24666e-23)
(-0.0195045 0.00285224 3.52902e-23)
(-0.0218502 0.00299964 -3.80123e-23)
(-0.0242984 0.00313399 -4.05891e-23)
(-0.0268351 0.00325178 0)
(-0.0294438 0.00334932 0)
(-0.0321045 0.00342282 4.69444e-23)
(-0.0347946 0.00346852 -4.06399e-23)
(-0.0374886 0.00348282 0)
(-0.0401584 0.00346245 0)
(-0.0427736 0.00340452 5.00776e-23)
(-0.0453023 0.00330672 0)
(-0.047711 0.00316742 0)
(-0.049966 0.00298575 -4.63681e-23)
(-0.0520333 0.00276174 0)
(-0.0538798 0.0024963 3.85546e-23)
(-0.0554738 0.00219134 -7.20343e-23)
(-0.0567857 0.00184969 0)
(-0.0577887 0.00147511 0)
(-0.0584595 0.00107218 -7.83274e-23)
(-0.0587786 0.000646187 -5.0551e-23)
(-0.0587308 0.00020307 -1.98062e-23)
(-0.058306 -0.00025071 -1.7406e-24)
(-0.0574987 -0.000708595 3.06473e-23)
(-0.0563085 -0.00116371 1.37637e-22)
(-0.0547402 -0.00160933 -1.26719e-22)
(-0.0528031 -0.00203909 -9.17211e-23)
(-0.0505112 -0.0024471 0)
(-0.0478825 -0.00282814 1.34111e-22)
(-0.0449387 -0.00317775 -1.35566e-22)
(-0.0417044 -0.00349233 0)
(-0.0382069 -0.00376923 0)
(-0.0344751 -0.00400672 0)
(-0.0305392 -0.00420398 2.30163e-22)
(-0.02643 -0.00436102 0)
(-0.0221783 -0.00447859 -4.9463e-22)
(-0.0178146 -0.00455801 0)
(-0.0133686 -0.004601 -5.3478e-22)
(-0.00886914 -0.00460949 0)
(-0.00434388 -0.00458535 5.55571e-22)
(0.000180003 -0.00453018 0)
(0.00467663 -0.00444537 -5.46181e-22)
(0.00912039 -0.00433223 2.53499e-22)
(0.0134854 -0.00419181 0)
(0.0177456 -0.00402459 4.82452e-22)
(0.0218744 -0.00383051 2.36481e-22)
(0.0258439 -0.00360917 2.19129e-22)
(0.0296247 -0.00335996 0)
(0.0331856 -0.00308231 1.61704e-22)
(0.0364935 -0.00277596 1.5777e-22)
(0.0395141 -0.00244114 0)
(0.0422117 -0.00207892 -1.11774e-22)
(0.0445507 -0.00169142 1.63361e-22)
(0.046496 -0.001282 0)
(0.0480147 -0.000855403 4.12825e-23)
(0.0490776 -0.000417865 0)
(0.0496609 2.29331e-05 1.48675e-23)
(0.049748 0.000458363 0)
(0.0493314 0.000878656 -1.27168e-22)
(0.0484145 0.00127368 -5.82197e-23)
(0.0470121 0.00163338 7.11277e-23)
(0.0451519 0.00194827 1.62916e-22)
(0.0428743 0.0022101 -1.79182e-22)
(0.0402318 0.00241247 0)
(0.0372879 0.0025513 0)
(0.0341145 0.0026252 0)
(0.030789 0.00263564 6.58108e-22)
(0.0273912 0.00258682 2.26562e-22)
(0.0239991 0.00248535 -2.23235e-22)
(0.0206857 0.00233972 0)
(0.0175157 0.00215963 -1.85275e-22)
(0.014543 0.00195527 2.01002e-22)
(0.0118091 0.00173666 1.91231e-22)
(0.00934247 0.00151315 0)
(0.00715839 0.00129312 0)
(0.00525987 0.00108382 0)
(0.00363857 0.000891337 1.51492e-22)
(0.00227633 0.000720516 0)
(0.00114693 0.000574833 -2.59911e-22)
(0.000218294 0.000456202 -3.76051e-22)
(-0.00054499 0.000364776 2.37273e-22)
(-0.00117891 0.000298895 0)
(-0.00171727 0.000255297 1.07923e-22)
(-0.0021894 0.000229554 0)
(-0.00261856 0.000216631 2.10781e-22)
(-0.00302119 0.000211513 -1.01799e-22)
(-0.00340703 0.000209732 -1.00515e-22)
(-0.00377987 0.000207727 0)
(-0.00413886 0.000202993 -3.00598e-22)
(-0.00447993 0.000194069 1.97256e-22)
(-0.00479714 0.000180386 9.84885e-23)
(-0.00508393 0.000162081 0)
(-0.00533401 0.00013978 9.54457e-23)
(-0.0055421 0.000114416 2.79915e-22)
(-0.00570428 8.70725e-05 0)
(-0.00581827 5.88703e-05 1.78928e-22)
(-0.00588346 3.08802e-05 1.74885e-22)
(-0.00590084 4.07076e-06 1.70645e-22)
(-0.00587287 -2.07392e-05 0)
(-0.00580322 -4.29264e-05 0)
(-0.00569655 -6.20224e-05 0)
(-0.0055582 -7.77435e-05 -7.69337e-23)
(-0.00539395 -8.99784e-05 -7.39098e-23)
(-0.00520973 -9.87678e-05 0)
(-0.00501138 -0.000104281 -1.40872e-22)
(-0.00480447 -0.000106788 -1.37263e-22)
(-0.00459413 -0.000106634 0)
(-0.00438491 -0.000104208 -1.29745e-22)
(-0.00418072 -9.99208e-05 -2.55979e-22)
(-0.00398482 -9.41814e-05 1.24437e-22)
(-0.00379974 -8.73796e-05 1.23968e-22)
(-0.00362741 -7.98728e-05 0)
(-0.00346911 -7.19771e-05 0)
(-0.0033256 -6.39621e-05 0)
(-0.00319715 -5.60496e-05 1.14992e-22)
(-0.00308367 -4.84148e-05 -1.14586e-22)
(-0.0029847 -4.11893e-05 -2.25286e-22)
(-0.00289959 -3.44657e-05 1.10909e-22)
(-0.00282746 -2.83027e-05 -1.10295e-22)
(-0.00276735 -2.2731e-05 -1.08445e-22)
(-0.0027182 -1.77583e-05 0)
(-0.00267893 -1.33747e-05 0)
(-0.00264846 -9.55696e-06 1.05033e-22)
(-0.00262572 -6.27251e-06 0)
(-0.00260973 -3.48259e-06 0)
(-0.00259952 -1.1449e-06 -2.01905e-22)
(-0.00259422 7.83176e-07 0)
(-0.00259303 2.33683e-06 -9.81334e-23)
(-0.00259519 3.55326e-06 9.66856e-23)
(-0.00260007 4.51779e-06 0)
(-0.00260708 5.23644e-06 -9.35629e-23)
(-0.00261572 5.74467e-06 0)
(-0.00262553 6.07827e-06 0)
(-0.00263616 6.2697e-06 8.87421e-23)
(-0.00264728 6.34899e-06 -1.73956e-22)
(-0.00265866 6.34406e-06 8.5285e-23)
(-0.00267011 6.2808e-06 0)
(-0.0026815 6.18274e-06 0)
(-0.00269275 6.07035e-06 -7.975e-23)
(-0.00270382 5.95986e-06 0)
(-0.00271472 5.86147e-06 -7.59964e-23)
(-0.00272544 5.77711e-06 0)
(-0.00273598 5.69767e-06 0)
(-0.00274631 5.60017e-06 0)
(-0.00275628 5.44493e-06 -6.82694e-23)
(-0.00276563 5.17322e-06 0)
(-0.00277389 4.70494e-06 6.4167e-23)
(-0.00278036 3.93906e-06 0)
(-0.00278398 2.78901e-06 0)
(-0.00278335 1.08546e-06 -1.15399e-22)
(-0.00277658 -1.36551e-06 1.1093e-22)
(-0.00276121 -4.77468e-06 0)
(-0.00273405 -9.48437e-06 0)
(-0.00269056 -1.61817e-05 0)
(-0.00262365 -2.65334e-05 -2.76924e-22)
(-0.00253528 -4.29411e-05 0)
(-0.00232911 -8.31994e-05 1.65175e-22)
(1.53491e-05 -0.000304582 -3.27649e-24)
(9.82432e-05 -0.000655103 -4.79167e-23)
(0.000187411 -0.000791502 0)
(0.000245178 -0.000756156 4.60756e-23)
(0.000232659 -0.000586454 0)
(0.000120023 -0.000314649 0)
(-0.0001158 3.22377e-05 3.20955e-24)
(-0.00049305 0.000432183 -1.46781e-23)
(-0.00102624 0.000867823 -1.55362e-23)
(-0.00172671 0.00132594 -9.08321e-24)
(-0.00260328 0.00179691 0)
(-0.0036628 0.00227408 0)
(-0.00491064 0.00275316 3.14521e-24)
(-0.00635102 0.00323163 -1.07617e-24)
(-0.00798722 0.00370818 8.88617e-24)
(-0.00982173 0.00418221 0)
(-0.0118562 0.00465335 2.58037e-23)
(-0.0140914 0.00512109 -2.3672e-23)
(-0.0165268 0.00558438 0)
(-0.0191607 0.00604141 5.42291e-23)
(-0.0219891 0.0064894 3.89572e-23)
(-0.0250063 0.00692446 -7.48868e-23)
(-0.0282035 0.00734159 -4.95432e-23)
(-0.031569 0.00773465 0)
(-0.0350876 0.00809656 1.07227e-22)
(-0.0387406 0.00841936 1.17969e-22)
(-0.0425049 0.00869453 0)
(-0.0463539 0.00891317 1.38549e-22)
(-0.0502566 0.00906636 0)
(-0.0541785 0.00914542 1.56707e-22)
(-0.0580817 0.00914227 8.53247e-23)
(-0.0619252 0.00904975 0)
(-0.0656659 0.0088619 0)
(-0.0692589 0.00857428 0)
(-0.0726585 0.00818418 0)
(-0.0758192 0.00769085 0)
(-0.0786964 0.00709561 0)
(-0.0812472 0.00640194 1.6829e-22)
(-0.0834317 0.00561544 -2.33986e-22)
(-0.0852133 0.00474382 0)
(-0.0865596 0.0037967 0)
(-0.0874433 0.00278541 0)
(-0.0878422 0.00172269 -1.5332e-23)
(-0.08774 0.000622441 4.83392e-23)
(-0.087126 -0.000500515 5.55974e-23)
(-0.0859966 -0.0016309 7.43861e-24)
(-0.0843537 -0.0027533 2.78808e-23)
(-0.0822049 -0.00385285 -8.36125e-23)
(-0.0795635 -0.00491544 2.06804e-23)
(-0.0764481 -0.00592801 -1.39421e-22)
(-0.072882 -0.00687893 0)
(-0.0688924 -0.00775817 -2.18575e-22)
(-0.0645102 -0.00855751 2.20164e-23)
(-0.0597691 -0.00927068 0)
(-0.0547049 -0.00989341 0)
(-0.0493547 -0.0104233 3.69708e-22)
(-0.0437566 -0.01086 0)
(-0.0379484 -0.0112045 0)
(-0.0319678 -0.0114594 -4.36848e-22)
(-0.0258514 -0.0116283 -9.655e-22)
(-0.0196346 -0.0117156 5.24649e-22)
(-0.0133514 -0.0117257 0)
(-0.00703441 -0.0116634 -5.48108e-22)
(-0.000715406 -0.0115325 0)
(0.00557528 -0.0113364 -4.94522e-22)
(0.0118082 -0.0110772 -5.22741e-22)
(0.0179525 -0.0107564 9.56843e-22)
(0.0239772 -0.0103745 4.30912e-22)
(0.0298503 -0.00993056 0)
(0.0355375 -0.00942294 -7.77655e-22)
(0.0410023 -0.00884938 0)
(0.046205 -0.00820753 -9.58517e-22)
(0.0511029 -0.00749543 -5.43964e-22)
(0.0556504 -0.00671209 -4.58612e-22)
(0.059799 -0.00585814 3.71438e-22)
(0.0634984 -0.00493635 -4.41769e-22)
(0.0666973 -0.00395223 0)
(0.069345 -0.00291448 0)
(0.0713932 -0.00183522 2.9635e-23)
(0.0727983 -0.00073019 -5.93467e-23)
(0.0735239 0.000381319 0)
(0.0735424 0.00147704 8.25239e-23)