/*--------------------------------*- C++ -*----------------------------------*\
  =========                 |
  \\      /  F ield         | OpenFOAM: The Open Source CFD Toolbox
   \\    /   O peration     | Website:  https://openfoam.org
    \\  /    A nd           | Version:  8
     \\/     M anipulation  |
\*---------------------------------------------------------------------------*/
FoamFile
{
    version     2.0;
    format      ascii;
    class       volScalarField;
    location    "0.5";
    object      p;
}
// * * * * * * * * * * * * * * * * * * * * * * * * * * * * * * * * * * * * * //

dimensions      [0 2 -2 0 0 0 0];

internalField   nonuniform List<scalar> 
12225
(
-0.0137901
-0.0137514
-0.0137034
-0.0136557
-0.0136168
-0.0135907
-0.013581
-0.0135916
-0.0136265
-0.013691
-0.0137915
-0.0139373
-0.0141448
-0.0144452
-0.0149019
-0.0156458
-0.0170511
-0.0207276
-0.0137886
-0.0137537
-0.0137096
-0.0136657
-0.0136304
-0.0136079
-0.0136018
-0.013616
-0.0136547
-0.0137228
-0.0138269
-0.0139762
-0.0141867
-0.0144873
-0.0149326
-0.0156255
-0.0167733
-0.0192187
-0.0137887
-0.0137573
-0.0137175
-0.0136779
-0.0136468
-0.0136283
-0.0136264
-0.0136448
-0.0136875
-0.0137594
-0.0138667
-0.0140183
-0.0142286
-0.0145223
-0.0149406
-0.0155488
-0.0163963
-0.0178861
-0.013791
-0.0137618
-0.0137258
-0.0136902
-0.0136629
-0.0136483
-0.0136502
-0.0136722
-0.0137183
-0.0137928
-0.0139016
-0.0140523
-0.0142569
-0.0145336
-0.0149084
-0.0154125
-0.0160168
-0.0169078
-0.0137955
-0.0137676
-0.0137345
-0.0137025
-0.0136789
-0.0136678
-0.0136731
-0.0136982
-0.0137468
-0.0138228
-0.0139311
-0.0140779
-0.0142715
-0.0145231
-0.0148445
-0.0152409
-0.0156564
-0.0161649
-0.0138021
-0.0137745
-0.0137439
-0.0137151
-0.0136948
-0.013687
-0.0136953
-0.0137231
-0.0137734
-0.0138498
-0.013956
-0.014096
-0.0142744
-0.0144957
-0.0147599
-0.0150554
-0.0153223
-0.01558
-0.0138106
-0.0137827
-0.013754
-0.013728
-0.0137107
-0.0137059
-0.0137169
-0.0137467
-0.0137982
-0.0138739
-0.0139762
-0.0141072
-0.0142678
-0.0144561
-0.0146641
-0.0148711
-0.0150239
-0.0151215
-0.013821
-0.0137921
-0.0137646
-0.0137411
-0.0137265
-0.0137243
-0.0137376
-0.013769
-0.0138209
-0.0138949
-0.0139923
-0.0141127
-0.0142538
-0.0144093
-0.0145658
-0.0146995
-0.0147687
-0.0147699
-0.0138327
-0.0138025
-0.0137756
-0.0137542
-0.013742
-0.0137421
-0.0137574
-0.0137899
-0.0138416
-0.0139133
-0.0140049
-0.014114
-0.0142358
-0.0143606
-0.0144729
-0.0145496
-0.0145612
-0.0145086
-0.0138454
-0.0138136
-0.013787
-0.0137673
-0.0137572
-0.0137594
-0.0137762
-0.0138096
-0.0138607
-0.0139297
-0.0140152
-0.0141134
-0.0142172
-0.0143156
-0.0143925
-0.0144281
-0.0144034
-0.0143248
-0.0138586
-0.013825
-0.0137985
-0.0137803
-0.013772
-0.0137759
-0.0137941
-0.0138281
-0.0138785
-0.0139448
-0.0140246
-0.014113
-0.0142018
-0.0142792
-0.0143302
-0.0143391
-0.014295
-0.0142088
-0.0138704
-0.0138354
-0.0138088
-0.0137918
-0.013785
-0.0137904
-0.0138097
-0.0138441
-0.0138939
-0.0139581
-0.0140337
-0.0141151
-0.0141935
-0.0142573
-0.0142933
-0.0142888
-0.0142384
-0.0141557
-0.0138813
-0.0138456
-0.013819
-0.0138032
-0.0137978
-0.0138046
-0.013825
-0.0138599
-0.0139094
-0.0139721
-0.0140445
-0.0141208
-0.0141922
-0.0142478
-0.014276
-0.0142674
-0.01422
-0.0141467
-0.0138918
-0.0138565
-0.0138301
-0.0138156
-0.013812
-0.0138205
-0.0138422
-0.0138779
-0.0139275
-0.0139894
-0.0140601
-0.0141336
-0.0142017
-0.0142544
-0.0142822
-0.0142782
-0.0142427
-0.014186
-0.0139001
-0.0138667
-0.0138414
-0.0138288
-0.0138274
-0.0138377
-0.0138611
-0.0138981
-0.0139487
-0.0140114
-0.0140828
-0.0141573
-0.0142275
-0.0142848
-0.0143212
-0.0143316
-0.0143168
-0.0142838
-0.0139035
-0.0138741
-0.0138518
-0.0138421
-0.0138434
-0.0138561
-0.0138816
-0.0139206
-0.0139733
-0.0140388
-0.0141141
-0.0141945
-0.0142735
-0.0143437
-0.0143983
-0.0144328
-0.0144462
-0.0144427
-0.0138976
-0.0138756
-0.0138595
-0.0138542
-0.0138591
-0.0138748
-0.0139028
-0.0139443
-0.0140002
-0.0140701
-0.0141522
-0.0142426
-0.014336
-0.0144258
-0.0145056
-0.0145701
-0.0146166
-0.0146451
-0.0138778
-0.0138678
-0.0138618
-0.0138631
-0.0138725
-0.0138912
-0.0139213
-0.0139646
-0.0140229
-0.0140967
-0.0141854
-0.0142861
-0.0143945
-0.0145045
-0.0146097
-0.0147035
-0.0147799
-0.0148353
-0.0138423
-0.013849
-0.0138563
-0.013865
-0.0138779
-0.0138972
-0.0139256
-0.0139655
-0.0140193
-0.0140887
-0.0141741
-0.014274
-0.0143852
-0.0145023
-0.0146189
-0.0147273
-0.0148194
-0.0148879
-0.0138147
-0.0138365
-0.0138554
-0.0138697
-0.0138836
-0.0139001
-0.0139215
-0.01395
-0.0139879
-0.014037
-0.0140982
-0.014171
-0.0142535
-0.0143419
-0.0144309
-0.0145141
-0.0145828
-0.0146288
-0.0138083
-0.0138393
-0.0138653
-0.0138834
-0.0138987
-0.0139138
-0.0139305
-0.0139505
-0.0139753
-0.0140061
-0.0140437
-0.0140879
-0.014137
-0.0141883
-0.0142378
-0.0142803
-0.0143083
-0.0143139
-0.0138187
-0.0138543
-0.0138845
-0.0139059
-0.0139233
-0.0139388
-0.0139533
-0.0139678
-0.0139829
-0.013999
-0.0140162
-0.0140338
-0.0140506
-0.0140641
-0.0140714
-0.0140685
-0.0140496
-0.014008
-0.0138398
-0.0138766
-0.013909
-0.0139336
-0.0139542
-0.0139719
-0.013987
-0.0139996
-0.0140095
-0.0140164
-0.0140195
-0.0140176
-0.0140092
-0.013992
-0.0139636
-0.0139207
-0.0138593
-0.0137742
-0.0138652
-0.013901
-0.0139348
-0.013963
-0.0139877
-0.014009
-0.0140268
-0.0140405
-0.0140494
-0.0140524
-0.0140479
-0.0140343
-0.0140095
-0.0139711
-0.0139167
-0.0138437
-0.013749
-0.0136289
-0.0138898
-0.013924
-0.0139592
-0.0139915
-0.0140209
-0.0140468
-0.0140686
-0.0140856
-0.0140964
-0.0140995
-0.0140928
-0.014074
-0.0140405
-0.0139898
-0.0139192
-0.0138262
-0.0137083
-0.0135632
-0.0139103
-0.0139434
-0.0139809
-0.0140177
-0.0140521
-0.0140829
-0.0141095
-0.0141308
-0.0141455
-0.0141514
-0.0141462
-0.014127
-0.0140909
-0.0140348
-0.0139558
-0.0138513
-0.0137191
-0.0135576
-0.0139253
-0.0139585
-0.0139993
-0.0140412
-0.0140806
-0.0141163
-0.0141478
-0.014174
-0.0141935
-0.0142039
-0.0142026
-0.0141863
-0.0141515
-0.014095
-0.0140134
-0.0139038
-0.0137639
-0.0135927
-0.0139341
-0.0139694
-0.014015
-0.014062
-0.0141064
-0.0141469
-0.0141832
-0.0142145
-0.0142394
-0.0142554
-0.0142595
-0.0142481
-0.0142176
-0.0141639
-0.0140836
-0.0139734
-0.0138308
-0.0136545
-0.0139371
-0.0139768
-0.0140282
-0.0140807
-0.0141298
-0.0141747
-0.0142157
-0.0142521
-0.0142825
-0.0143047
-0.0143152
-0.0143102
-0.0142857
-0.0142373
-0.0141611
-0.0140535
-0.0139115
-0.0137338
-0.0139362
-0.0139812
-0.0140379
-0.0140948
-0.0141475
-0.0141959
-0.0142405
-0.0142809
-0.014316
-0.0143433
-0.0143593
-0.0143601
-0.0143412
-0.014298
-0.0142263
-0.0141221
-0.0139822
-0.013805
0.00303806
0.00306563
0.00306754
0.00302573
0.00293965
0.00281152
0.00264344
0.0024376
0.00219617
0.00192101
0.0016136
0.00127486
0.000905274
0.000505007
7.39919e-05
-0.000387882
-0.000880569
-0.00140365
-0.0019561
-0.00253606
-0.00314065
-0.00376568
-0.00440554
-0.00505293
-0.0056988
-0.00633227
-0.00694057
-0.00750919
-0.00802205
-0.00846176
-0.00881005
-0.00904822
-0.00915778
-0.00912102
-0.00892172
-0.0085458
-0.00798202
-0.00722247
-0.00626315
-0.00510427
-0.00375066
-0.0022118
-0.00050079
0.00136529
0.00336247
0.00546536
0.0076451
0.00987021
0.0121075
0.0143226
0.0164809
0.0185479
0.0204899
0.0222745
0.0238709
0.0252503
0.0263863
0.027255
0.0278354
0.0281099
0.0280653
0.0276918
0.026984
0.0259431
0.0245761
0.022897
0.020927
0.0186946
0.0162358
0.0135935
0.0108164
0.00795824
0.00507562
0.00222622
-0.000534079
-0.00315116
-0.00557895
-0.00777797
-0.0097177
-0.0113779
-0.0127492
-0.0138327
-0.0146391
-0.0151877
-0.0155039
-0.0156177
-0.0155612
-0.0153668
-0.0150654
-0.0146851
-0.0142508
-0.0137837
-0.0133013
-0.0128181
-0.0123458
-0.0118941
-0.0114708
-0.011082
-0.0107318
-0.0104229
-0.0101557
-0.00992894
-0.00973982
-0.00958424
-0.00945724
-0.00935344
-0.00926736
-0.00919371
-0.00912762
-0.00906476
-0.00900145
-0.00893468
-0.00886214
-0.00878219
-0.00869383
-0.00859663
-0.00849069
-0.00837654
-0.00825503
-0.00812731
-0.00799466
-0.00785846
-0.00772005
-0.00758086
-0.00744212
-0.00730494
-0.00717028
-0.00703897
-0.00691164
-0.00678876
-0.00667068
-0.00655758
-0.00644954
-0.00634652
-0.0062484
-0.00615501
-0.00606609
-0.00598138
-0.00590056
-0.00582333
-0.00574933
-0.00567826
-0.00560978
-0.00554358
-0.00547935
-0.00541681
-0.00535569
-0.00529574
-0.00523672
-0.00517841
-0.00512061
-0.00506314
-0.00500584
-0.00494856
-0.00489117
-0.00483353
-0.00477556
-0.00471715
-0.00465821
-0.00459868
-0.00453848
-0.00447754
-0.00441581
-0.00435323
-0.0042897
-0.00422516
-0.00415945
-0.00409239
-0.00402368
-0.00395289
-0.00387946
-0.00380254
-0.0037213
-0.00363476
-0.00354212
-0.00344283
-0.00333673
-0.00322682
-0.00311774
-0.00297355
0.00307503
0.0031003
0.0031001
0.00305871
0.00297779
0.00286036
0.00270848
0.00252392
0.00230828
0.00206293
0.0017888
0.00148649
0.00115617
0.000797648
0.000410515
-5.72171e-06
-0.00045149
-0.000926989
-0.00143198
-0.00196556
-0.00252595
-0.00311025
-0.00371423
-0.00433207
-0.00495619
-0.00557711
-0.00618334
-0.00676139
-0.00729589
-0.00776977
-0.00816467
-0.00846138
-0.00864039
-0.00868265
-0.00857022
-0.00828708
-0.00781988
-0.00715858
-0.00629718
-0.00523418
-0.00397328
-0.00252295
-0.000889458
0.00090351
0.00283605
0.00488219
0.00701254
0.00919522
0.0113965
0.0135816
0.0157153
0.0177624
0.0196887
0.0214615
0.0230495
0.0244236
0.0255573
0.0264264
0.0270098
0.0272893
0.0272511
0.0268856
0.0261882
0.0251606
0.0238104
0.0221518
0.0202066
0.0180041
0.0155809
0.0129806
0.0102528
0.00745157
0.00463393
0.0018576
-0.000820852
-0.00335063
-0.0056862
-0.00779105
-0.00963748
-0.0112082
-0.0124969
-0.0135077
-0.014254
-0.0147565
-0.015042
-0.0151403
-0.0150827
-0.0148999
-0.0146206
-0.0142706
-0.013872
-0.0134436
-0.0130008
-0.0125561
-0.01212
-0.0117009
-0.0113062
-0.0109414
-0.010611
-0.0103177
-0.0100624
-0.0098445
-0.00966175
-0.00951073
-0.00938708
-0.00928594
-0.00920229
-0.00913115
-0.00906788
-0.00900829
-0.00894872
-0.00888615
-0.00881819
-0.0087431
-0.00865976
-0.00856762
-0.00846666
-0.00835729
-0.00824032
-0.00811677
-0.00798791
-0.00785508
-0.00771968
-0.00758301
-0.00744636
-0.00731088
-0.00717757
-0.00704727
-0.00692066
-0.00679825
-0.00668041
-0.00656737
-0.00645922
-0.00635597
-0.00625753
-0.00616374
-0.00607437
-0.00598916
-0.00590783
-0.00583007
-0.00575555
-0.00568396
-0.00561497
-0.00554828
-0.00548359
-0.00542062
-0.00535908
-0.00529875
-0.00523936
-0.00518072
-0.00512262
-0.00506488
-0.00500733
-0.00494983
-0.00489223
-0.00483442
-0.00477628
-0.00471773
-0.00465867
-0.00459902
-0.00453872
-0.0044777
-0.00441589
-0.00435322
-0.00428962
-0.00422498
-0.00415917
-0.00409199
-0.00402313
-0.00395218
-0.00387859
-0.0038017
-0.00372069
-0.00363477
-0.00354322
-0.00344564
-0.00334211
-0.00323606
-0.00313139
-0.00299396
0.00330409
0.00331183
0.00329437
0.00324107
0.00315458
0.00303801
0.00289326
0.00272171
0.0025245
0.00230246
0.00205594
0.00178484
0.00148858
0.00116615
0.000816231
0.00043724
2.75047e-05
-0.00041458
-0.000890345
-0.00140061
-0.0019454
-0.00252364
-0.00313281
-0.0037686
-0.00442461
-0.00509204
-0.00575953
-0.00641307
-0.00703614
-0.00760989
-0.00811366
-0.00852551
-0.008823
-0.00898404
-0.00898779
-0.00881553
-0.00845159
-0.00788415
-0.00710607
-0.00611522
-0.0049134
-0.00350556
-0.0019107
-0.000143443
0.00177227
0.00380892
0.00593589
0.00812004
0.0103264
0.0125191
0.0146619
0.0167192
0.0186561
0.0204395
0.0220382
0.0234231
0.0245675
0.0254477
0.0260425
0.0263335
0.0263076
0.0259549
0.0252696
0.0242532
0.022913
0.0212634
0.0193261
0.0171311
0.0147158
0.0121251
0.00941004
0.00662656
0.0038335
0.0010904
-0.00154496
-0.00401897
-0.00628525
-0.00830805
-0.0100617
-0.0115312
-0.0127134
-0.0136163
-0.0142579
-0.0146636
-0.014864
-0.0148921
-0.0147813
-0.0145628
-0.0142646
-0.0139106
-0.0135205
-0.0131099
-0.0126911
-0.0122739
-0.0118662
-0.0114749
-0.0111057
-0.0107637
-0.0104529
-0.0101762
-0.00993476
-0.00972834
-0.00955506
-0.00941202
-0.0092953
-0.00920041
-0.00912262
-0.00905719
-0.00899965
-0.00894587
-0.00889223
-0.00883567
-0.00877373
-0.00870459
-0.00862703
-0.00854044
-0.0084447
-0.00834017
-0.00822761
-0.00810804
-0.00798269
-0.00785291
-0.00772011
-0.00758564
-0.00745081
-0.00731678
-0.00718461
-0.00705516
-0.00692914
-0.00680711
-0.00668946
-0.00657645
-0.00646822
-0.00636477
-0.00626605
-0.00617191
-0.00608214
-0.00599651
-0.00591473
-0.0058365
-0.00576151
-0.00568945
-0.00562001
-0.00555288
-0.00548776
-0.00542438
-0.00536246
-0.00530176
-0.00524204
-0.00518309
-0.0051247
-0.00506669
-0.0050089
-0.00495118
-0.00489338
-0.00483539
-0.00477709
-0.00471839
-0.00465921
-0.00459945
-0.00453905
-0.00447793
-0.00441604
-0.00435329
-0.00428961
-0.0042249
-0.004159
-0.00409171
-0.00402277
-0.00395176
-0.0038782
-0.00380146
-0.00372084
-0.00363567
-0.00354541
-0.0034498
-0.00334904
-0.00324681
-0.00314722
-0.00301487
0.0037277
0.00370049
0.003649
0.00357178
0.00347035
0.00334624
0.00320053
0.00303395
0.00284686
0.00263907
0.00240989
0.002158
0.00188148
0.00157778
0.00124378
0.000875914
0.000470277
2.28914e-05
-0.000470017
-0.00101165
-0.00160418
-0.00224826
-0.00294249
-0.00368287
-0.00446236
-0.00527052
-0.00609337
-0.00691343
-0.00770998
-0.00845962
-0.00913696
-0.0097155
-0.0101687
-0.0104709
-0.0105986
-0.0105311
-0.0102517
-0.00974848
-0.00901469
-0.00804855
-0.00685237
-0.00543613
-0.00381787
-0.00201796
-6.1752e-05
0.00202132
0.00419857
0.00643491
0.00869368
0.0109375
0.0131291
0.015232
0.0172111
0.0190331
0.0206668
0.0220837
0.0232574
0.0241644
0.0247839
0.0250978
0.0250927
0.0247588
0.0240891
0.0230836
0.0217488
0.0200984
0.018154
0.0159455
0.0135111
0.0108969
0.00815598
0.00534676
0.00253104
-0.000228343
-0.00287023
-0.00533777
-0.00757983
-0.00955689
-0.0112425
-0.0126217
-0.0136928
-0.0144666
-0.0149658
-0.015222
-0.0152727
-0.0151581
-0.0149178
-0.0145878
-0.0141991
-0.0137765
-0.0133386
-0.0128987
-0.0124656
-0.0120456
-0.011643
-0.0112617
-0.0109052
-0.0105771
-0.0102803
-0.0100171
-0.00978867
-0.00959455
-0.00943292
-0.00930089
-0.00919465
-0.00910977
-0.00904154
-0.00898528
-0.00893649
-0.00889102
-0.00884523
-0.00879599
-0.00874081
-0.00867782
-0.00860579
-0.00852407
-0.00843258
-0.0083317
-0.00822222
-0.00810521
-0.00798197
-0.0078539
-0.00772245
-0.00758904
-0.00745503
-0.00732162
-0.00718989
-0.00706074
-0.00693491
-0.00681298
-0.00669535
-0.0065823
-0.00647397
-0.00637039
-0.00627149
-0.00617715
-0.00608716
-0.00600128
-0.00591924
-0.00584075
-0.0057655
-0.00569317
-0.00562346
-0.00555606
-0.00549068
-0.00542705
-0.0053649
-0.00530397
-0.00524403
-0.00518487
-0.00512629
-0.00506811
-0.00501015
-0.00495227
-0.00489433
-0.00483621
-0.0047778
-0.00471899
-0.00465971
-0.00459987
-0.0045394
-0.00447822
-0.00441626
-0.00435346
-0.00428973
-0.00422497
-0.00415902
-0.00409171
-0.00402277
-0.00395183
-0.00387843
-0.00380202
-0.00372198
-0.00363772
-0.00354882
-0.00345511
-0.00335682
-0.00325752
-0.00316082
-0.00303513
0.00429319
0.00421772
0.00411948
0.00400966
0.00388711
0.00375027
0.0035984
0.00343067
0.00324579
0.00304191
0.00281655
0.00256642
0.00228741
0.00197452
0.00162192
0.00122309
0.000771123
0.000259055
-0.00031957
-0.000970082
-0.00169597
-0.0024981
-0.00337403
-0.00431736
-0.00531733
-0.00635866
-0.00742165
-0.00848266
-0.00951475
-0.0104886
-0.0113738
-0.0121394
-0.0127557
-0.013195
-0.0134326
-0.0134479
-0.0132249
-0.0127527
-0.012026
-0.0110445
-0.00981532
-0.00835248
-0.00667439
-0.00480437
-0.00277039
-0.00060447
0.00165826
0.00398044
0.00632341
0.00864814
0.0109161
0.0130899
0.0151342
0.0170156
0.0187033
0.0201693
0.021388
0.0223365
0.0229944
0.0233437
0.0233699
0.0230632
0.0224165
0.0214274
0.0201015
0.0184514
0.016498
0.014271
0.011809
0.00915932
0.00637689
0.00352267
0.000661659
-0.00213958
-0.00481572
-0.0073056
-0.0095546
-0.0115168
-0.01316
-0.0144674
-0.0154357
-0.0160764
-0.0164146
-0.0164873
-0.0163394
-0.0160203
-0.0155791
-0.0150612
-0.0145049
-0.0139402
-0.0133879
-0.0128607
-0.0123651
-0.0119035
-0.011476
-0.0110822
-0.0107221
-0.0103964
-0.0101062
-0.00985221
-0.00963469
-0.00945264
-0.00930377
-0.00918476
-0.00909156
-0.00901954
-0.00896378
-0.00891941
-0.00888177
-0.0088466
-0.00881012
-0.00876916
-0.00872118
-0.0086643
-0.00859731
-0.00851965
-0.0084313
-0.00833278
-0.00822497
-0.00810907
-0.0079865
-0.00785875
-0.00772738
-0.00759389
-0.00745969
-0.00732603
-0.00719403
-0.00706462
-0.00693855
-0.0068164
-0.00669859
-0.00658537
-0.0064769
-0.0063732
-0.0062742
-0.00617976
-0.00608968
-0.00600371
-0.00592159
-0.00584301
-0.00576766
-0.00569523
-0.00562542
-0.00555792
-0.00549244
-0.0054287
-0.00536643
-0.0053054
-0.00524535
-0.00518609
-0.00512741
-0.00506912
-0.00501107
-0.0049531
-0.00489508
-0.00483688
-0.0047784
-0.00471953
-0.00466018
-0.00460029
-0.00453976
-0.00447854
-0.00441655
-0.00435372
-0.00428996
-0.00422518
-0.00415924
-0.00409196
-0.0040231
-0.00395233
-0.00387924
-0.00380332
-0.00372405
-0.00364089
-0.00355347
-0.00346167
-0.00336572
-0.00326868
-0.00317336
-0.0030563
0.00493227
0.00480082
0.00464902
0.00450241
0.00435591
0.0042032
0.00404041
0.00386413
0.00367052
0.00345513
0.00321276
0.00293727
0.00262143
0.00225691
0.0018344
0.00134395
0.000775454
0.000119376
-0.000632403
-0.00148562
-0.00244264
-0.00350158
-0.00465559
-0.00589248
-0.00719463
-0.00853934
-0.00989948
-0.0112444
-0.0125411
-0.0137554
-0.014853
-0.0158008
-0.0165679
-0.0171264
-0.0174524
-0.0175262
-0.0173335
-0.0168651
-0.0161177
-0.0150948
-0.0138065
-0.0122683
-0.010501
-0.00853065
-0.00638815
-0.00410836
-0.00172924
0.000709183
0.00316583
0.0055996
0.00797034
0.0102396
0.0123714
0.0143324
0.0160923
0.0176236
0.0189019
0.0199051
0.0206135
0.0210096
0.0210781
0.0208086
0.0201938
0.0192293
0.0179191
0.0162747
0.0143158
0.0120717
0.00958147
0.00689341
0.00406424
0.00115746
-0.00175879
-0.00461422
-0.00733934
-0.00986839
-0.0121424
-0.0141104
-0.0157345
-0.0169914
-0.0178746
-0.0183933
-0.0185723
-0.0184508
-0.0180795
-0.0175159
-0.0168203
-0.0160498
-0.0152546
-0.0144741
-0.0137361
-0.0130564
-0.0124416
-0.0118914
-0.0114015
-0.0109665
-0.0105818
-0.0102436
-0.00994973
-0.00969845
-0.00948807
-0.00931627
-0.00917981
-0.0090745
-0.00899561
-0.00893806
-0.00889651
-0.00886569
-0.00884064
-0.00881685
-0.00879038
-0.00875795
-0.00871698
-0.00866564
-0.00860279
-0.008528
-0.00844143
-0.00834376
-0.00823607
-0.00811975
-0.00799635
-0.00786754
-0.00773499
-0.0076003
-0.00746492
-0.0073302
-0.00719726
-0.00706705
-0.00694033
-0.00681766
-0.00669946
-0.00658597
-0.00647732
-0.00637351
-0.00627447
-0.00618003
-0.00608998
-0.00600406
-0.005922
-0.00584348
-0.00576819
-0.00569582
-0.00562606
-0.0055586
-0.00549315
-0.00542943
-0.00536717
-0.00530613
-0.00524608
-0.0051868
-0.0051281
-0.00506979
-0.00501171
-0.00495371
-0.00489565
-0.00483742
-0.0047789
-0.00472
-0.00466062
-0.0046007
-0.00454015
-0.0044789
-0.00441689
-0.00435405
-0.00429029
-0.00422552
-0.00415962
-0.00409243
-0.00402372
-0.00395322
-0.00388055
-0.0038053
-0.00372696
-0.00364508
-0.0035593
-0.00346948
-0.00337583
-0.00328066
-0.00318591
-0.00307847
0.00555661
0.00536647
0.00515946
0.00497573
0.00480449
0.00463317
0.00445358
0.00425864
0.00404095
0.00379251
0.00350451
0.00316708
0.00276914
0.00229852
0.00174228
0.00108735
0.000321449
-0.000565877
-0.00158201
-0.00273011
-0.00400809
-0.00540789
-0.0069152
-0.0085096
-0.0101651
-0.0118512
-0.0135337
-0.0151765
-0.0167424
-0.0181945
-0.019497
-0.0206165
-0.0215223
-0.0221874
-0.0225888
-0.0227085
-0.022533
-0.0220549
-0.0212733
-0.0201941
-0.0188286
-0.0171941
-0.0153142
-0.0132177
-0.0109387
-0.00851525
-0.00598873
-0.00340243
-0.000800497
0.00177326
0.00427643
0.00666899
0.00891393
0.0109777
0.0128304
0.0144455
0.0157995
0.0168716
0.0176433
0.0180977
0.0182198
0.0179976
0.0174233
0.0164918
0.0152047
0.0135721
0.0116127
0.00935538
0.0068394
0.00411423
0.00123845
-0.00172186
-0.00469539
-0.00760825
-0.0103869
-0.0129612
-0.0152674
-0.017251
-0.0188687
-0.0200909
-0.0209055
-0.021318
-0.0213505
-0.0210412
-0.0204431
-0.0196195
-0.0186399
-0.0175737
-0.0164847
-0.0154258
-0.0144359
-0.013539
-0.0127454
-0.0120545
-0.0114592
-0.0109492
-0.0105139
-0.0101443
-0.00983346
-0.00957575
-0.00936653
-0.00920128
-0.00907511
-0.00898251
-0.00891771
-0.00887482
-0.00884782
-0.00883091
-0.00881866
-0.00880622
-0.00878942
-0.00876486
-0.00872994
-0.00868288
-0.00862271
-0.00854918
-0.00846268
-0.00836414
-0.00825488
-0.0081365
-0.00801078
-0.00787955
-0.00774461
-0.00760766
-0.00747024
-0.00733372
-0.00719926
-0.0070678
-0.0069401
-0.00681669
-0.00669796
-0.00658413
-0.00647529
-0.00637142
-0.00627242
-0.00617808
-0.00608819
-0.00600247
-0.00592061
-0.00584231
-0.00576724
-0.00569507
-0.0056255
-0.00555821
-0.00549291
-0.00542933
-0.00536719
-0.00530625
-0.00524628
-0.00518707
-0.00512842
-0.00507015
-0.0050121
-0.00495412
-0.00489608
-0.00483785
-0.00477933
-0.00472043
-0.00466105
-0.00460112
-0.00454056
-0.00447931
-0.0044173
-0.00435447
-0.00429073
-0.004226
-0.00416017
-0.00409311
-0.00402462
-0.00395447
-0.00388234
-0.00380787
-0.00373062
-0.00365015
-0.0035661
-0.00347829
-0.00338688
-0.00329326
-0.00319862
-0.00310072
0.00606057
0.00581454
0.00555539
0.0053366
0.0051404
0.0049468
0.00474222
0.00451497
0.00425323
0.00394467
0.00357616
0.00313356
0.00260171
0.00196475
0.00120683
0.000313167
-0.000728685
-0.0019274
-0.00328654
-0.00480348
-0.00646871
-0.00826569
-0.0101712
-0.0121563
-0.0141873
-0.0162273
-0.0182375
-0.0201785
-0.0220112
-0.0236977
-0.0252024
-0.0264919
-0.0275361
-0.0283084
-0.0287867
-0.0289531
-0.0287947
-0.0283049
-0.0274848
-0.0263407
-0.0248853
-0.023138
-0.0211248
-0.0188778
-0.0164344
-0.0138367
-0.0111297
-0.00836106
-0.00557867
-0.00282999
-0.000160471
0.00238746
0.00477527
0.00696877
0.00893818
0.0106579
0.0121058
0.0132626
0.0141112
0.014636
0.0148224
0.0146574
0.0141327
0.0132425
0.0119859
0.0103714
0.00841704
0.00615113
0.00361338
0.000854536
-0.00206475
-0.00507568
-0.00810374
-0.0110714
-0.0139012
-0.016519
-0.0188568
-0.0208558
-0.0224681
-0.0236613
-0.0244161
-0.0247337
-0.0246324
-0.0241476
-0.0233315
-0.02225
-0.0209786
-0.0195968
-0.0181815
-0.0168005
-0.0155072
-0.0143376
-0.01331
-0.0124276
-0.0116826
-0.0110607
-0.0105461
-0.0101232
-0.0097792
-0.00950345
-0.00928722
-0.0091228
-0.00900292
-0.0089203
-0.00886768
-0.00883798
-0.00882437
-0.00882028
-0.00881969
-0.00881735
-0.00880881
-0.00879052
-0.00875989
-0.00871525
-0.00865581
-0.00858159
-0.00849325
-0.00839201
-0.00827948
-0.00815751
-0.00802808
-0.00789323
-0.00775487
-0.00761482
-0.00747467
-0.00733582
-0.00719942
-0.00706643
-0.00693755
-0.00681329
-0.006694
-0.00657985
-0.00647089
-0.00636706
-0.00626821
-0.00617412
-0.00608453
-0.00599915
-0.00591766
-0.00583972
-0.005765
-0.00569318
-0.00562392
-0.00555693
-0.0054919
-0.00542856
-0.00536663
-0.00530588
-0.00524608
-0.00518701
-0.00512847
-0.0050703
-0.00501233
-0.00495441
-0.00489642
-0.00483823
-0.00477974
-0.00472086
-0.00466149
-0.00460158
-0.00454103
-0.00447979
-0.0044178
-0.00435499
-0.00429129
-0.00422662
-0.0041609
-0.00409401
-0.00402579
-0.00395605
-0.00388455
-0.00381094
-0.00373486
-0.00365586
-0.00357357
-0.0034877
-0.00339837
-0.00330605
-0.00321118
-0.00312187
0.00633135
0.00603692
0.00573253
0.00548225
0.00526055
0.00503938
0.00479917
0.00452298
0.00419403
0.00379516
0.00330867
0.00271614
0.0019987
0.00113773
0.000115999
-0.00108091
-0.00246297
-0.00403427
-0.00579184
-0.00772499
-0.00981532
-0.0120373
-0.0143595
-0.0167457
-0.0191569
-0.021552
-0.02389
-0.02613
-0.0282322
-0.0301588
-0.0318738
-0.0333438
-0.0345383
-0.0354304
-0.0359972
-0.0362205
-0.0360869
-0.0355903
-0.034732
-0.0335185
-0.0319638
-0.0300895
-0.0279241
-0.0255031
-0.0228676
-0.0200638
-0.0171418
-0.0141538
-0.0111526
-0.00819038
-0.0053166
-0.002577
-1.24922e-05
0.00234146
0.0044549
0.00630299
0.00786518
0.00912412
0.0100645
0.0106724
0.0109342
0.010837
0.0103709
0.00952964
0.00831072
0.00672103
0.00477753
0.00250836
-4.61692e-05
-0.00283383
-0.0057917
-0.0088481
-0.0119251
-0.0149417
-0.0178165
-0.0204715
-0.0228346
-0.0248432
-0.026446
-0.0276067
-0.028302
-0.0285283
-0.0283004
-0.0276504
-0.0266281
-0.0252992
-0.0237421
-0.0220431
-0.0202899
-0.0185642
-0.0169347
-0.0154522
-0.0141466
-0.0130285
-0.0120927
-0.0113233
-0.0106996
-0.0102
-0.00980493
-0.00949763
-0.00926428
-0.00909314
-0.0089738
-0.00889665
-0.00885256
-0.00883303
-0.00883009
-0.00883629
-0.00884495
-0.0088503
-0.00884759
-0.00883317
-0.00880444
-0.00875989
-0.00869897
-0.00862196
-0.00852986
-0.00842419
-0.00830686
-0.00817999
-0.00804577
-0.00790639
-0.00776391
-0.00762021
-0.00747693
-0.00733548
-0.00719699
-0.00706239
-0.00693233
-0.00680728
-0.00668753
-0.00657319
-0.00646426
-0.00636062
-0.00626209
-0.00616842
-0.0060793
-0.00599443
-0.00591345
-0.00583602
-0.00576179
-0.00569044
-0.00562162
-0.00555503
-0.00549037
-0.00542735
-0.00536572
-0.00530522
-0.00524564
-0.00518676
-0.00512839
-0.00507035
-0.0050125
-0.00495467
-0.00489675
-0.00483863
-0.00478019
-0.00472134
-0.00466201
-0.00460211
-0.00454159
-0.00448038
-0.00441841
-0.00435563
-0.00429199
-0.00422741
-0.00416181
-0.00409512
-0.00402721
-0.00395793
-0.00388707
-0.00381437
-0.00373945
-0.00366191
-0.00358129
-0.00349721
-0.00340969
-0.00331845
-0.00322312
-0.00314086
0.00626175
0.00593067
0.00559108
0.0053138
0.00506546
0.00481019
0.00452228
0.00417941
0.00375964
0.00324101
0.00260141
0.00181867
0.000871207
-0.000260917
-0.0015944
-0.00314102
-0.00490596
-0.00688662
-0.00907192
-0.0114424
-0.0139711
-0.0166246
-0.019365
-0.0221514
-0.0249414
-0.0276921
-0.0303612
-0.0329073
-0.0352902
-0.0374714
-0.0394139
-0.0410831
-0.0424472
-0.0434778
-0.0441504
-0.0444452
-0.0443479
-0.0438521
-0.0429588
-0.0416744
-0.0400142
-0.0380016
-0.0356677
-0.0330512
-0.0301974
-0.0271572
-0.0239857
-0.020741
-0.0174816
-0.0142652
-0.0111467
-0.00817614
-0.00539782
-0.00284934
-0.00056142
0.00144162
0.00314078
0.00452095
0.00556929
0.00627382
0.00662261
0.00660348
0.0062054
0.00542133
0.00424787
0.00268996
0.000763849
-0.00150236
-0.00406757
-0.00687785
-0.00986782
-0.0129628
-0.0160815
-0.0191392
-0.0220508
-0.0247345
-0.0271147
-0.0291248
-0.0307102
-0.0318313
-0.0324627
-0.0325962
-0.0322436
-0.0314345
-0.0302158
-0.0286518
-0.0268217
-0.0248155
-0.0227283
-0.0206534
-0.0186738
-0.0168554
-0.0152422
-0.0138553
-0.012695
-0.0117467
-0.0109864
-0.010387
-0.00992225
-0.0095688
-0.00930693
-0.00912006
-0.00899401
-0.00891631
-0.00887564
-0.00886183
-0.0088655
-0.00887825
-0.00889262
-0.00890233
-0.0089023
-0.00888876
-0.00885918
-0.00881218
-0.00874749
-0.00866569
-0.00856811
-0.00845658
-0.0083333
-0.0082006
-0.0080609
-0.00791653
-0.00776962
-0.00762211
-0.00747565
-0.00733164
-0.00719119
-0.00705515
-0.00692413
-0.00679852
-0.00667854
-0.00656425
-0.00645558
-0.00635238
-0.00625439
-0.00616133
-0.00607288
-0.00598868
-0.00590837
-0.00583159
-0.00575798
-0.0056872
-0.00561892
-0.00555282
-0.0054886
-0.00542597
-0.00536469
-0.0053045
-0.00524518
-0.00518652
-0.00512835
-0.00507047
-0.00501275
-0.00495503
-0.0048972
-0.00483914
-0.00478075
-0.00472195
-0.00466264
-0.00460278
-0.00454228
-0.00448109
-0.00441915
-0.00435642
-0.00429284
-0.00422835
-0.0041629
-0.00409642
-0.00402883
-0.00396002
-0.00388981
-0.00381797
-0.00374415
-0.00366793
-0.0035888
-0.00350627
-0.00342022
-0.00332989
-0.00323395
-0.00315689
0.00576614
0.00541338
0.00505096
0.0047518
0.00447555
0.0041795
0.00383227
0.00340638
0.00287507
0.00221198
0.0013912
0.000387759
-0.00082141
-0.00225593
-0.00393018
-0.0058515
-0.00801883
-0.0104219
-0.0130415
-0.0158501
-0.0188134
-0.0218923
-0.0250447
-0.0282267
-0.0313943
-0.0345038
-0.0375119
-0.0403765
-0.0430561
-0.0455107
-0.0477014
-0.0495913
-0.0511462
-0.0523351
-0.0531316
-0.0535138
-0.0534656
-0.0529801
-0.0520572
-0.0507034
-0.0489349
-0.0467766
-0.0442621
-0.0414331
-0.0383392
-0.0350359
-0.0315843
-0.0280482
-0.024493
-0.0209829
-0.0175791
-0.0143373
-0.0113064
-0.00852732
-0.00603223
-0.0038455
-0.00198472
-0.00046258
0.000710957
0.00152668
0.00197479
0.00204436
0.00172407
0.00100589
-0.00011388
-0.00163223
-0.00353353
-0.00578945
-0.0083579
-0.0111831
-0.0141971
-0.0173222
-0.0204739
-0.0235637
-0.0265032
-0.0292067
-0.0315952
-0.0335985
-0.0351589
-0.036233
-0.0367951
-0.0368322
-0.0363543
-0.0353891
-0.0339815
-0.0321942
-0.0301058
-0.027808
-0.0254008
-0.0229858
-0.0206579
-0.0184973
-0.0165624
-0.0148863
-0.013478
-0.0123262
-0.0114062
-0.0106864
-0.0101345
-0.00972039
-0.00941808
-0.00920565
-0.00906467
-0.00897935
-0.00893591
-0.00892226
-0.00892751
-0.00894218
-0.00895801
-0.00896815
-0.00896724
-0.00895137
-0.00891809
-0.00886621
-0.00879569
-0.00870743
-0.00860306
-0.00848469
-0.00835477
-0.00821586
-0.0080705
-0.00792112
-0.00776992
-0.00761885
-0.00746955
-0.00732336
-0.00718134
-0.00704428
-0.0069127
-0.00678693
-0.00666711
-0.00655322
-0.00644514
-0.00634265
-0.00624547
-0.00615326
-0.00606567
-0.00598232
-0.00590283
-0.00582683
-0.00575396
-0.00568385
-0.00561618
-0.00555063
-0.0054869
-0.00542472
-0.00536381
-0.00530395
-0.00524491
-0.0051865
-0.00512852
-0.00507081
-0.00501322
-0.00495561
-0.00489786
-0.00483986
-0.00478152
-0.00472275
-0.00466347
-0.00460362
-0.00454314
-0.00448197
-0.00442006
-0.00435737
-0.00429384
-0.00422945
-0.00416415
-0.00409789
-0.00403061
-0.00396223
-0.00389262
-0.00382154
-0.00374868
-0.00367359
-0.00359569
-0.0035144
-0.00342945
-0.00333989
-0.00324329
-0.00316949
0.00479423
0.00443672
0.00406537
0.0037502
0.00344547
0.00310327
0.00268749
0.00216618
0.00150839
0.000684074
-0.000335574
-0.00157728
-0.00306431
-0.00481465
-0.0068391
-0.00913963
-0.0117085
-0.0145281
-0.0175718
-0.0208055
-0.0241899
-0.0276819
-0.0312368
-0.0348093
-0.0383543
-0.041827
-0.0451833
-0.0483793
-0.0513716
-0.0541175
-0.0565751
-0.0587048
-0.060469
-0.0618341
-0.0627708
-0.0632549
-0.0632683
-0.0628033
-0.0618583
-0.0604397
-0.0585641
-0.0562578
-0.0535563
-0.0505044
-0.0471552
-0.0435694
-0.0398134
-0.0359576
-0.0320744
-0.0282353
-0.0245089
-0.0209578
-0.0176367
-0.0145909
-0.0118554
-0.00945534
-0.00740729
-0.00572151
-0.00440473
-0.00346279
-0.0029027
-0.0027335
-0.0029658
-0.0036088
-0.00466654
-0.00613677
-0.00800485
-0.010242
-0.0128049
-0.0156359
-0.0186645
-0.02181
-0.0249847
-0.0280971
-0.0310551
-0.0337698