/*--------------------------------*- C++ -*----------------------------------*\
  =========                 |
  \\      /  F ield         | OpenFOAM: The Open Source CFD Toolbox
   \\    /   O peration     | Website:  https://openfoam.org
    \\  /    A nd           | Version:  8
     \\/     M anipulation  |
\*---------------------------------------------------------------------------*/
FoamFile
{
    version     2.0;
    format      ascii;
    class       surfaceScalarField;
    location    "0.5";
    object      phi;
}
// * * * * * * * * * * * * * * * * * * * * * * * * * * * * * * * * * * * * * //

dimensions      [0 3 -1 0 0 0 0];

internalField   nonuniform List<scalar> 
24170
(
-5.77474e-12
5.77474e-12
-1.32928e-12
-4.44546e-12
1.41001e-11
-1.54294e-11
3.89756e-11
-2.48755e-11
7.18678e-11
-3.28922e-11
1.12032e-10
-4.01646e-11
1.59117e-10
-4.70843e-11
2.12894e-10
-5.37769e-11
2.73124e-10
-6.02307e-11
3.39643e-10
-6.65185e-11
4.12673e-10
-7.30305e-11
4.93364e-10
-8.06912e-11
5.84432e-10
-9.10676e-11
6.90312e-10
-1.0588e-10
8.13309e-10
-1.22996e-10
9.24832e-10
-1.11524e-10
9.0309e-10
2.17428e-11
2.0707e-09
-1.16761e-09
-1.14117e-11
1.71865e-11
6.20908e-12
-2.20663e-11
5.73429e-11
-6.65632e-11
1.37463e-10
-1.04995e-10
2.42535e-10
-1.37965e-10
3.70158e-10
-1.67788e-10
5.19001e-10
-1.95927e-10
6.87984e-10
-2.22759e-10
8.7584e-10
-2.48087e-10
1.08122e-09
-2.71902e-10
1.30331e-09
-2.95116e-10
1.54258e-09
-3.19961e-10
1.80083e-09
-3.49314e-10
2.07734e-09
-3.8239e-10
2.35057e-09
-3.96228e-10
2.51052e-09
-2.71479e-10
2.06435e-09
4.67915e-10
4.59797e-09
-4.62917e-10
-1.15506e-11
2.87371e-11
2.57806e-11
-5.93975e-11
1.20528e-10
-1.6131e-10
2.65492e-10
-2.4996e-10
4.54039e-10
-3.26511e-10
6.81866e-10
-3.95615e-10
9.46269e-10
-4.6033e-10
1.24475e-09
-5.21241e-10
1.57421e-09
-5.77543e-10
1.93085e-09
-6.28542e-10
2.31065e-09
-6.7492e-10
2.70951e-09
-7.18816e-10
3.12079e-09
-7.60603e-10
3.5247e-09
-7.86292e-10
3.85379e-09
-7.25317e-10
3.89731e-09
-3.15004e-10
3.03273e-09
1.3325e-09
7.1728e-09
4.57902e-10
-5.88078e-12
3.46179e-11
5.91301e-11
-1.24408e-10
2.06515e-10
-3.08696e-10
4.26727e-10
-4.70171e-10
7.10488e-10
-6.10272e-10
1.05136e-09
-7.36483e-10
1.44478e-09
-8.53751e-10
1.88614e-09
-9.62607e-10
2.36947e-09
-1.06087e-09
2.88691e-09
-1.14599e-09
3.4286e-09
-1.2166e-09
3.98136e-09
-1.27158e-09
4.52306e-09
-1.3023e-09
5.00518e-09
-1.26842e-09
5.30968e-09
-1.02981e-09
5.16216e-09
-1.67487e-10
4.01763e-09
2.47703e-09
9.62602e-09
1.5644e-09
5.98209e-12
2.86358e-11
1.07799e-10
-2.26226e-10
3.17822e-10
-5.18718e-10
6.24224e-10
-7.76574e-10
1.01502e-09
-1.00107e-09
1.48134e-09
-1.20281e-09
2.01626e-09
-1.38867e-09
2.61224e-09
-1.55859e-09
3.25923e-09
-1.70787e-09
3.9435e-09
-1.83026e-09
4.64654e-09
-1.91964e-09
5.34206e-09
-1.96711e-09
5.9874e-09
-1.94764e-09
6.50282e-09
-1.78384e-09
6.73147e-09
-1.25845e-09
6.38849e-09
1.75493e-10
5.0877e-09
3.77781e-09
1.18523e-08
2.8614e-09
2.42145e-11
4.42126e-12
1.72848e-10
-3.7486e-10
4.56175e-10
-8.02045e-10
8.59861e-10
-1.18026e-09
1.36905e-09
-1.51026e-09
1.97216e-09
-1.80591e-09
2.65928e-09
-2.07579e-09
3.41911e-09
-2.31842e-09
4.23627e-09
-2.52503e-09
5.08938e-09
-2.68336e-09
5.94883e-09
-2.77908e-09
6.77239e-09
-2.79066e-09
7.49516e-09
-2.67041e-09
8.0104e-09
-2.29909e-09
8.14279e-09
-1.39084e-09
7.64086e-09
6.77427e-10
6.29148e-09
5.12719e-09
1.37919e-08
4.35192e-09
4.88533e-11
-4.44321e-11
2.5465e-10
-5.80656e-10
6.22144e-10
-1.16954e-09
1.1338e-09
-1.69192e-09
1.77163e-09
-2.14809e-09
2.52094e-09
-2.55522e-09
3.36833e-09
-2.92317e-09
4.29788e-09
-3.24797e-09
5.2878e-09
-3.51495e-09
6.30759e-09
-3.70315e-09
7.31499e-09
-3.78648e-09
8.25084e-09
-3.72651e-09
9.02992e-09
-3.44949e-09
9.52767e-09
-2.79684e-09
9.57179e-09
-1.43496e-09
8.97172e-09
1.2775e-09
7.66852e-09
6.43039e-09
1.54104e-08
6.05e-09
7.95158e-11
-1.23948e-10
3.52635e-10
-8.53776e-10
8.14679e-10
-1.63158e-09
1.44383e-09
-2.32106e-09
2.21852e-09
-2.92278e-09
3.12063e-09
-3.45733e-09
4.13273e-09
-3.93527e-09
5.23369e-09
-4.34893e-09
6.39451e-09
-4.67578e-09
7.57486e-09
-4.8835e-09
8.7195e-09
-4.93112e-09
9.75362e-09
-4.76064e-09
1.05767e-08
-4.27255e-09
1.10578e-08
-3.27797e-09
1.10456e-08
-1.42279e-09
1.04218e-08
1.90134e-09
9.24813e-09
7.60405e-09
1.66863e-08
7.97219e-09
1.15443e-10
-2.39391e-10
4.65042e-10
-1.20338e-09
1.03061e-09
-2.19715e-09
1.7846e-09
-3.07505e-09
2.70132e-09
-3.8395e-09
3.75887e-09
-4.51489e-09
4.9355e-09
-5.1119e-09
6.20455e-09
-5.61798e-09
7.52967e-09
-6.0009e-09
8.8609e-09
-6.21473e-09
1.01313e-08
-6.2015e-09
1.12538e-08
-5.8831e-09
1.21194e-08
-5.13824e-09
1.26026e-08
-3.76112e-09
1.25845e-08
-1.40468e-09
1.20172e-08
2.46866e-09
1.10466e-08
8.57464e-09
1.76018e-08
1.01311e-08
1.5541e-10
-3.94801e-10
5.88663e-10
-1.63663e-09
1.26412e-09
-2.87261e-09
2.14686e-09
-3.95779e-09
3.20643e-09
-4.89907e-09
4.4169e-09
-5.72536e-09
5.75217e-09
-6.44718e-09
7.18026e-09
-7.04607e-09
8.65809e-09
-7.47872e-09
1.01275e-08
-7.68412e-09
1.15125e-08
-7.58656e-09
1.2719e-08
-7.08953e-09
1.36374e-08
-6.05668e-09
1.41565e-08
-4.28017e-09
1.41951e-08
-1.44337e-09
1.37654e-08
2.89837e-09
1.3064e-08
9.27609e-09
1.81367e-08
1.25291e-08
1.9786e-10
-5.92661e-10
7.18629e-10
-2.1574e-09
1.50627e-09
-3.66025e-09
2.51671e-09
-4.96823e-09
3.71408e-09
-6.09644e-09
5.06839e-09
-7.07966e-09
6.54956e-09
-7.92835e-09
8.12114e-09
-8.61765e-09
9.73485e-09
-9.09243e-09
1.13269e-08
-9.27615e-09
1.28165e-08
-9.07623e-09
1.41082e-08
-8.38121e-09
1.50994e-08
-7.04784e-09
1.56992e-08
-4.87995e-09
1.58636e-08
-1.60785e-09
1.56501e-08
3.1119e-09
1.52786e-08
9.6476e-09
1.82653e-08
1.515e-08
2.009e-10
-7.9356e-10
7.07172e-10
-2.66367e-09
1.45643e-09
-4.40951e-09
2.40269e-09
-5.91449e-09
3.51097e-09
-7.20472e-09
4.75302e-09
-8.32171e-09
6.10105e-09
-9.27638e-09
7.522e-09
-1.00386e-08
8.97295e-09
-1.05434e-08
1.03984e-08
-1.07016e-08
1.17304e-08
-1.04082e-08
1.28917e-08
-9.54249e-09
1.38054e-08
-7.96161e-09
1.4413e-08
-5.48748e-09
1.47022e-08
-1.89708e-09
1.47446e-08
3.06946e-09
1.4728e-08
9.66419e-09
1.80358e-08
1.49576e-08
2.64858e-10
-1.05842e-09
9.17194e-10
-3.31601e-09
1.8627e-09
-5.35502e-09
3.03944e-09
-7.09123e-09
4.40223e-09
-8.5675e-09
5.91582e-09
-9.8353e-09
7.54675e-09
-1.09073e-08
9.25627e-09
-1.17481e-08
1.09953e-08
-1.22824e-08
1.27018e-08
-1.24082e-08
1.43021e-08
-1.20084e-08
1.57163e-08
-1.09567e-08
1.68711e-08
-9.11633e-09
1.77197e-08
-6.33612e-09
1.82714e-08
-2.44879e-09
1.86231e-08
2.71773e-09
1.89814e-08
9.30589e-09
1.73672e-08
1.965e-08
3.3919e-10
-1.39761e-09
1.15938e-09
-4.1362e-09
2.32441e-09
-6.52005e-09
3.75166e-09
-8.51847e-09
5.38403e-09
-1.01999e-08
7.17909e-09
-1.16304e-08
9.09883e-09
-1.2827e-08
1.11013e-08
-1.37506e-08
1.31351e-08
-1.43162e-08
1.5137e-08
-1.44101e-08
1.70345e-08
-1.3906e-08
1.87534e-08
-1.26756e-08
2.02319e-08
-1.05948e-08
2.1442e-08
-7.5462e-09
2.24152e-08
-3.42202e-09
2.32676e-08
1.86529e-09
2.42103e-08
8.3632e-09
1.60463e-08
2.55312e-08
4.14943e-10
-1.81255e-09
1.4017e-09
-5.12296e-09
2.77685e-09
-7.89519e-09
4.43345e-09
-1.01751e-08
6.30236e-09
-1.20688e-08
8.33577e-09
-1.36638e-08
1.0495e-08
-1.49862e-08
1.27407e-08
-1.59963e-08
1.5027e-08
-1.66025e-08
1.72994e-08
-1.66826e-08
1.94981e-08
-1.61046e-08
2.15657e-08
-1.47431e-08
2.34617e-08
-1.24909e-08
2.51813e-08
-9.2658e-09
2.67755e-08
-5.01618e-09
2.83687e-08
2.72057e-10
3.01585e-08
6.57338e-09
1.38037e-08
3.24012e-08
4.6902e-10
-2.28157e-09
1.56567e-09
-6.21961e-09
3.06496e-09
-9.39449e-09
4.83833e-09
-1.19484e-08
6.80867e-09
-1.40391e-08
8.92875e-09
-1.57839e-08
1.11672e-08
-1.72247e-08
1.34978e-08
-1.8327e-08
1.58934e-08
-1.89981e-08
1.8323e-08
-1.91122e-08
2.07544e-08
-1.8536e-08
2.31612e-08
-1.71499e-08
2.55334e-08
-1.48632e-08
2.78921e-08
-1.16245e-08
3.0302e-08
-7.42603e-09
3.28794e-08
-2.30541e-09
3.57957e-08
3.6571e-09
1.03421e-08
3.92573e-08
4.53239e-10
-2.73481e-09
1.48964e-09
-7.25601e-09
2.87339e-09
-1.07782e-08
4.47226e-09
-1.35473e-08
6.21452e-09
-1.57814e-08
8.06592e-09
-1.76353e-08
1.00157e-08
-1.91744e-08
1.20662e-08
-2.03775e-08
1.42259e-08
-2.11577e-08
1.65055e-08
-2.13918e-08
1.89185e-08
-2.0949e-08
2.14836e-08
-1.9715e-08
2.42311e-08
-1.76107e-08
2.72097e-08
-1.4603e-08
3.04925e-08
-1.07089e-08
3.41808e-08
-5.99369e-09
3.84026e-08
-5.64689e-10
5.44109e-09
4.33036e-08
2.77956e-10
-3.01277e-09
8.8079e-10
-7.85885e-09
1.64053e-09
-1.1538e-08
2.46697e-09
-1.43737e-08
3.32148e-09
-1.66359e-08
4.20275e-09
-1.85165e-08
5.1375e-09
-2.01092e-08
6.17298e-09
-2.1413e-08
7.37057e-09
-2.23553e-08
8.80074e-09
-2.2822e-08
1.05394e-08
-2.26876e-08
1.26655e-08
-2.18411e-08
1.52605e-08
-2.02057e-08
1.84081e-08
-1.77506e-08
2.2194e-08
-1.44948e-08
2.67055e-08
-1.05052e-08
3.20283e-08
-5.88754e-09
-7.77082e-10
3.82465e-08
-1.95948e-10
-2.81682e-09
-6.86788e-10
-7.36801e-09
-1.4242e-09
-1.08006e-08
-2.37926e-09
-1.34187e-08
-3.51714e-09
-1.5498e-08
-4.78495e-09
-1.72487e-08
-6.10691e-09
-1.87872e-08
-7.38307e-09
-2.01368e-08
-8.49118e-09
-2.12472e-08
-9.29124e-09
-2.2022e-08
-9.63211e-09
-2.23467e-08
-9.35943e-09
-2.21138e-08
-8.32363e-09
-2.12415e-08
-6.38744e-09
-1.96867e-08
-3.4323e-09
-1.74499e-08
6.37132e-10
-1.45746e-08
5.89059e-09
-1.1141e-08
-7.25424e-09
1.23677e-08
-5.15095e-10
-2.30172e-09
-1.70704e-09
-6.17606e-09
-3.36363e-09
-9.14397e-09
-5.37372e-09
-1.14086e-08
-7.66555e-09
-1.32062e-08
-1.01784e-08
-1.47358e-08
-1.28474e-08
-1.61183e-08
-1.55937e-08
-1.73905e-08
-1.83199e-08
-1.8521e-08
-2.09096e-08
-1.94323e-08
-2.32312e-08
-2.00252e-08
-2.51446e-08
-2.02004e-08
-2.65099e-08
-1.98762e-08
-2.71962e-08
-1.90005e-08
-2.70893e-08
-1.75568e-08
-2.60984e-08
-1.55654e-08
-2.41597e-08
-1.30797e-08
-1.01786e-08
-2.12353e-08
-6.25182e-10
-1.67654e-09
-2.06919e-09
-4.73205e-09
-4.06589e-09
-7.14728e-09
-6.47662e-09
-8.99787e-09
-9.21841e-09
-1.04644e-08
-1.22331e-08
-1.17211e-08
-1.5469e-08
-1.28824e-08
-1.88674e-08
-1.39921e-08
-2.2354e-08
-1.50344e-08
-2.5835e-08
-1.59513e-08
-2.91976e-08
-1.66626e-08
-3.2315e-08
-1.7083e-08
-3.50539e-08
-1.71373e-08
-3.72832e-08
-1.67712e-08
-3.88829e-08
-1.59571e-08
-3.97516e-08
-1.46967e-08
-3.9812e-08
-1.30193e-08
-1.0978e-08
-3.90127e-08
-5.87918e-10
-1.08862e-09
-1.96914e-09
-3.35083e-09
-3.89773e-09
-5.2187e-09
-6.24021e-09
-6.65538e-09
-8.91661e-09
-7.78799e-09
-1.18771e-08
-8.76067e-09
-1.50853e-08
-9.67414e-09
-1.85045e-08
-1.0573e-08
-2.20864e-08
-1.14524e-08
-2.57654e-08
-1.22723e-08
-2.94562e-08
-1.29718e-08
-3.30564e-08
-1.34828e-08
-3.64515e-08
-1.37422e-08
-3.95229e-08
-1.36998e-08
-4.21555e-08
-1.33245e-08
-4.42457e-08
-1.26065e-08
-4.57077e-08
-1.15572e-08
-1.02084e-08
-4.64773e-08
-4.7074e-10
-6.17884e-10
-1.61926e-09
-2.20231e-09
-3.25848e-09
-3.57948e-09
-5.27485e-09
-4.63901e-09
-7.59666e-09
-5.46618e-09
-1.01826e-08
-6.17475e-09
-1.30088e-08
-6.8479e-09
-1.6056e-08
-7.52579e-09
-1.92981e-08
-8.21034e-09
-2.2695e-08
-8.87538e-09
-2.61891e-08
-9.47765e-09
-2.97052e-08
-9.96672e-09
-3.31539e-08
-1.02935e-08
-3.6437e-08
-1.04167e-08
-3.94542e-08
-1.03073e-08
-4.21099e-08
-9.95089e-09
-4.43191e-08
-9.34804e-09
-8.51516e-09
-4.60123e-08
-3.29078e-10
-2.88806e-10
-1.19048e-09
-1.3409e-09
-2.46428e-09
-2.30567e-09
-4.0594e-09
-3.04389e-09
-5.91355e-09
-3.61203e-09
-7.99267e-09
-4.09564e-09
-1.02817e-08
-4.5589e-09
-1.27729e-08
-5.03452e-09
-1.54561e-08
-5.52718e-09
-1.83105e-08
-6.02094e-09
-2.13013e-08
-6.48693e-09
-2.43778e-08
-6.89023e-09
-2.74756e-08
-7.19566e-09
-3.052e-08
-7.37228e-09
-3.34307e-08
-7.39662e-09
-3.61271e-08
-7.25447e-09
-3.85337e-08
-6.94148e-09
-6.46427e-09
-4.05846e-08
-1.98636e-10
-9.01699e-11
-7.90302e-10
-7.49237e-10
-1.71178e-09
-1.3842e-09
-2.89147e-09
-1.8642e-09
-4.27658e-09
-2.22692e-09
-5.83932e-09
-2.5329e-09
-7.5703e-09
-2.82791e-09
-9.46883e-09
-3.13599e-09
-1.15339e-08
-3.46206e-09
-1.37579e-08
-3.79703e-09
-1.61219e-08
-4.12292e-09
-1.85948e-08
-4.41731e-09
-2.11334e-08
-4.657e-09
-2.36848e-08
-4.8209e-09
-2.61893e-08
-4.89214e-09
-2.85844e-08
-4.85933e-09
-3.08088e-08
-4.71708e-09
-4.4667e-09
-3.28064e-08
-9.71212e-11
6.95124e-12
-4.7025e-10
-3.76109e-10
-1.09478e-09
-7.59665e-10
-1.91475e-09
-1.04424e-09
-2.88695e-09
-1.25471e-09
-3.98949e-09
-1.43036e-09
-5.21669e-09
-1.60071e-09
-6.57123e-09
-1.78146e-09
-8.05685e-09
-1.97644e-09
-9.673e-09
-2.18088e-09
-1.14114e-08
-2.38454e-09
-1.32544e-08
-2.5743e-09
-1.51751e-08
-2.73631e-09
-1.71383e-08
-2.85767e-09
-1.91028e-08
-2.92763e-09
-2.10237e-08
-2.93843e-09
-2.28552e-08
-2.88565e-09
-2.76843e-09
-2.45534e-08
-2.95224e-11
3.64736e-11
-2.43386e-10
-1.62245e-10
-6.37892e-10
-3.65159e-10
-1.17e-09
-5.12128e-10
-1.80647e-09
-6.18249e-10
-2.53104e-09
-7.05784e-10
-3.34056e-09
-7.91197e-10
-4.23876e-09
-8.83261e-10
-5.23086e-09
-9.84334e-10
-6.31953e-09
-1.09221e-09
-7.50232e-09
-1.20175e-09
-8.77034e-09
-1.30627e-09
-1.01081e-08
-1.39859e-09
-1.14939e-08
-1.47187e-09
-1.29012e-08
-1.52026e-09
-1.43003e-08
-1.53931e-09
-1.56598e-08
-1.52622e-09
-1.47978e-09
-1.69484e-08
6.82372e-12
2.96499e-11
-1.01201e-10
-5.42207e-11
-3.27701e-10
-1.38658e-10
-6.41579e-10
-1.9825e-10
-1.01969e-09
-2.40142e-10
-1.45119e-09
-2.74278e-10
-1.93456e-09
-3.07831e-10
-2.47322e-09
-3.446e-10
-3.07189e-09
-3.85667e-10
-3.73388e-09
-4.30213e-10
-4.45942e-09
-4.76209e-10
-5.24474e-09
-5.20959e-10
-6.08179e-09
-5.61537e-10
-6.95855e-09
-5.95113e-10
-7.85962e-09
-6.19201e-10
-8.7671e-09
-6.31825e-10
-9.6617e-09
-6.31622e-10
-6.17778e-10
-1.05237e-08
1.8492e-11
1.11579e-11
-2.59862e-11
-9.74252e-12
-1.35047e-10
-2.95966e-11
-2.90064e-10
-4.32338e-11
-4.77721e-10
-5.24851e-11
-6.9208e-10
-5.9919e-11
-9.32608e-10
-6.73033e-11
-1.20164e-09
-7.55632e-11
-1.50234e-09
-8.49736e-11
-1.83719e-09
-9.53621e-11
-2.20712e-09
-1.06273e-10
-2.61099e-09
-1.17091e-10
-3.04539e-09
-1.27142e-10
-3.50474e-09
-1.35764e-10
-3.98158e-09
-1.42359e-10
-4.46697e-09
-1.46433e-10
-4.95101e-09
-1.47579e-10
-1.45495e-10
-5.4233e-09
1.11579e-11
1.41539e-12
-2.81812e-11
-7.1415e-11
-1.239e-10
-1.83819e-10
-2.51122e-10
-3.26686e-10
-4.11659e-10
-5.07021e-10
-6.13294e-10
-7.30385e-10
-8.57528e-10
-9.93292e-10
-1.13565e-09
-1.28208e-09
-1.42966e-09
-1.57516e-09
1.29291e-10
-1.29291e-10
4.41187e-10
-3.11896e-10
8.56207e-10
-4.1502e-10
1.30524e-09
-4.49029e-10
1.73634e-09
-4.31108e-10
2.11196e-09
-3.75616e-10
2.40578e-09
-2.93824e-10
2.59991e-09
-1.94122e-10
2.68228e-09
-8.23753e-11
2.6442e-09
3.80841e-11
2.47933e-09
1.64864e-10
2.18166e-09
2.97673e-10
1.74488e-09
4.36778e-10
1.16174e-09
5.83143e-10
4.2372e-10
7.38018e-10
-4.78994e-10
9.02714e-10
-1.55734e-09
1.07834e-09
-2.82285e-09
1.26551e-09
-4.28705e-09
1.46421e-09
-5.96074e-09
1.67369e-09
-7.85313e-09
1.89239e-09
-9.97097e-09
2.11783e-09
-1.23176e-08
2.34665e-09
-1.48922e-08
2.5746e-09
-1.76889e-08
2.79664e-09
-2.06959e-08
3.00704e-09
-2.38954e-08
3.19951e-09
-2.72628e-08
3.36744e-09
-3.0767e-08
3.5041e-09
-3.43699e-08
3.60294e-09
-3.80277e-08
3.65781e-09
-4.1691e-08
3.66327e-09
-4.53058e-08
3.61487e-09
-4.88152e-08
3.50932e-09
-5.21598e-08
3.34468e-09
-5.52804e-08
3.12053e-09
-5.81184e-08
2.83798e-09
-6.0618e-08
2.49968e-09
-6.27278e-08
2.10974e-09
-6.44013e-08
1.67352e-09
-6.5599e-08
1.19774e-09
-6.62896e-08
6.90588e-10
-6.64499e-08
1.60309e-10
-6.60564e-08
-3.93492e-10
-6.51076e-08
-9.48834e-10
-6.36048e-08
-1.50284e-09
-6.15574e-08
-2.04741e-09
-5.89822e-08
-2.57513e-09
-5.59026e-08
-3.07966e-09
-5.23469e-08
-3.55566e-09
-4.8348e-08
-3.99892e-09
-4.39418e-08
-4.40623e-09
-3.91664e-08
-4.77534e-09
-3.40616e-08
-5.10476e-09
-2.86681e-08
-5.39353e-09
-2.30272e-08
-5.64094e-09
-1.71809e-08
-5.84626e-09
-1.11726e-08
-6.00836e-09
-5.04738e-09
-6.1252e-09
1.14678e-09
-6.19415e-09
7.36015e-09
-6.21338e-09
1.35376e-08
-6.17742e-09
1.9618e-08
-6.08043e-09
2.55363e-08
-5.91829e-09
3.12229e-08
-5.68656e-09
3.66043e-08
-5.38146e-09
4.16048e-08
-5.0005e-09
4.61479e-08
-4.54312e-09
5.01591e-08
-4.01119e-09
5.35686e-08
-3.40949e-09
5.63146e-08
-2.74598e-09
5.83465e-08
-2.03185e-09
5.9628e-08
-1.28158e-09
6.0141e-08
-5.12949e-10
5.98824e-08
2.58564e-10
5.8879e-08
1.00344e-09
5.71718e-08
1.70721e-09
5.4823e-08
2.34877e-09
5.19127e-08
2.91028e-09
4.85357e-08
3.37698e-09
4.47976e-08
3.7381e-09
4.08099e-08
3.98767e-09
3.6685e-08
4.12492e-09
3.25308e-08
4.15426e-09
2.84459e-08
4.08487e-09
2.45161e-08
3.92979e-09
2.08113e-08
3.70482e-09
1.73841e-08
3.42715e-09
1.42702e-08
3.11395e-09
1.14889e-08
2.78126e-09
9.04589e-09
2.44304e-09
6.93509e-09
2.1108e-09
5.14149e-09
1.7936e-09
3.64306e-09
1.49842e-09
2.41243e-09
1.23063e-09
1.41803e-09
9.944e-10
6.25196e-10
7.92832e-10
-2.63164e-12
6.27828e-10
-5.02458e-10
4.99827e-10
-9.09919e-10
4.07461e-10
-1.25741e-09
3.47494e-10
-1.57251e-09
3.15096e-10
-1.87685e-09
3.04341e-10
-2.18576e-09
3.08911e-10
-2.50847e-09
3.22711e-10
-2.84882e-09
3.40348e-10
-3.20624e-09
3.57419e-10
-3.57688e-09
3.70637e-10
-3.95467e-09
3.77793e-10
-4.33232e-09
3.77646e-10
-4.70207e-09
3.69756e-10
-5.05639e-09
3.54315e-10
-5.38838e-09
3.31993e-10
-5.69218e-09
3.03796e-10
-5.96311e-09
2.70936e-10
-6.19784e-09
2.34732e-10
-6.39437e-09
1.96521e-10
-6.55194e-09
1.57577e-10
-6.67101e-09
1.19062e-10
-6.75299e-09
8.19809e-11
-6.80014e-09
4.71568e-11
-6.81547e-09
1.53237e-11
-6.80203e-09
-1.34334e-11
-6.76366e-09
-3.83766e-11
-6.704e-09
-5.96577e-11
-6.62671e-09
-7.72917e-11
-6.5353e-09
-9.14033e-11
-6.43309e-09
-1.02219e-10
-6.32306e-09
-1.10023e-10
-6.20792e-09
-1.15138e-10
-6.09002e-09
-1.17902e-10
-5.97137e-09
-1.18653e-10
-5.85365e-09
-1.17718e-10
-5.73824e-09
-1.15407e-10
-5.62625e-09
-1.11999e-10
-5.5185e-09
-1.07749e-10
-5.41562e-09
-1.02878e-10
-5.31804e-09
-9.75794e-11
-5.22602e-09
-9.2015e-11
-5.1397e-09
-8.63217e-11
-5.05909e-09
-8.06115e-11
-4.98411e-09
-7.49745e-11
-4.91463e-09
-6.94823e-11
-4.85044e-09
-6.41897e-11
-4.7913e-09
-5.91379e-11
-4.73695e-09
-5.43565e-11
-4.68708e-09
-4.98655e-11
-4.64141e-09
-4.56766e-11
-4.59961e-09
-4.17952e-11
-4.56139e-09
-3.82209e-11
-4.52644e-09
-3.4949e-11
-4.49447e-09
-3.19711e-11
-4.46519e-09
-2.92762e-11
-4.43834e-09
-2.68506e-11
-4.41366e-09
-2.46791e-11
-4.39092e-09
-2.2745e-11
-4.36989e-09
-2.10309e-11
-4.35037e-09
-1.9518e-11
-4.33218e-09
-1.81869e-11
-4.31517e-09
-1.70159e-11
-4.29919e-09
-1.59805e-11
-4.28414e-09
-1.5049e-11
-4.26996e-09
-1.4179e-11
-4.25665e-09
-1.33097e-11
-4.24429e-09
-1.23561e-11
-4.23309e-09
-1.12078e-11
-4.22335e-09
-9.73782e-12
-4.21551e-09
-7.83375e-12
-4.21005e-09
-5.45964e-12
-4.20732e-09
-2.73811e-12
-4.20737e-09
4.97468e-14
-4.20918e-09
1.81398e-12
-4.21077e-09
1.58986e-12
-4.20819e-09
-2.58094e-12
-4.19536e-09
-1.28265e-11
-4.16342e-09
-3.19412e-11
-4.09838e-09
-6.50401e-11
-3.97899e-09
-1.19394e-10
-3.77078e-09
-2.08206e-10
-4.80801e-10
-3.28998e-09
2.24245e-10
-3.53535e-10
6.95884e-10
-7.83536e-10
1.26551e-09
-9.84649e-10
1.82028e-09
-1.0038e-09
2.27185e-09
-8.8267e-10
2.55186e-09
-6.5563e-10
2.60771e-09
-3.49675e-10
2.39839e-09
1.52028e-11
1.89091e-09
4.25104e-10
1.05779e-09
8.71206e-10
-1.26056e-10
1.34871e-09
-1.68429e-09
1.85591e-09
-3.64067e-09
2.39315e-09
-6.01945e-09
2.96192e-09
-8.84545e-09
3.56402e-09
-1.21434e-08
4.2007e-09
-1.5937e-08
4.87191e-09
-2.02471e-08
5.57561e-09
-2.50902e-08
6.3073e-09
-3.04761e-08
7.05961e-09
-3.64059e-08
7.82216e-09
-4.28697e-08
8.58162e-09
-4.98449e-08
9.32185e-09
-5.72946e-08
1.00244e-08
-6.5167e-08
1.0669e-08
-7.33942e-08
1.12343e-08
-8.18934e-08
1.16988e-08
-9.05678e-08
1.20418e-08
-9.93079e-08
1.22442e-08
-1.07995e-07
1.22897e-08
-1.16502e-07
1.2165e-08
-1.247e-07
1.18612e-08
-1.32458e-07
1.13735e-08
-1.39651e-07
1.0702e-08
-1.46158e-07
9.85117e-09
-1.51867e-07
8.83e-09
-1.56681e-07
7.65146e-09
-1.60513e-07
6.33201e-09
-1.63294e-07
4.89099e-09
-1.6497e-07
3.34983e-09
-1.65504e-07
1.73085e-09
-1.64881e-07
6.81887e-11
-1.6308e-07
-1.64079e-09
-1.60129e-07
-3.34496e-09
-1.56046e-07
-5.03098e-09
-1.50871e-07
-6.67831e-09
-1.4465e-07
-8.26883e-09
-1.37438e-07
-9.78684e-09
-1.29298e-07
-1.12193e-08
-1.20298e-07
-1.25561e-08
-1.10507e-07
-1.37896e-08
-9.99985e-08
-1.49148e-08
-8.88451e-08
-1.59288e-08
-7.71196e-08
-1.68303e-08
-6.48941e-08
-1.7619e-08
-5.22402e-08
-1.82949e-08
-3.92289e-08
-1.88575e-08
-2.59323e-08
-1.9305e-08
-1.24239e-08
-1.96336e-08
1.21916e-09
-1.98372e-08
1.49112e-08
-1.99054e-08
2.85577e-08
-1.9824e-08
4.20579e-08
-1.95806e-08
5.53007e-08
-1.91611e-08
6.8165e-08
-1.85509e-08
8.052e-08
-1.77365e-08
9.22261e-08
-1.67066e-08
1.03137e-07
-1.54542e-08
1.13103e-07
-1.39775e-08
1.21975e-07
-1.22816e-08
1.29609e-07
-1.03793e-08
1.35869e-07
-8.29235e-09
1.40639e-07
-6.05113e-09
1.43821e-07
-3.69517e-09
1.45351e-07
-1.27152e-09
1.45195e-07
1.15939e-09
1.43366e-07
3.53618e-09
1.3992e-07
5.79528e-09
1.34956e-07
7.87365e-09
1.28621e-07
9.71255e-09
1.21098e-07
1.12606e-08
1.12609e-07
1.24775e-08
1.03396e-07
1.33375e-08
9.3719e-08
1.38312e-08
8.38367e-08
1.39672e-08
7.39959e-08
1.37706e-08
6.44196e-08
1.32811e-08
5.52972e-08
1.25496e-08
4.67784e-08
1.16328e-08
3.89707e-08
1.0589e-08
3.19401e-08
9.4736e-09
2.57147e-08
8.33625e-09
2.02892e-08
7.21904e-09
1.56312e-08
6.15643e-09
1.1686e-08
5.17586e-09
8.38193e-09
4.29846e-09
5.63527e-09
3.53949e-09
3.35503e-09
2.90807e-09
1.44815e-09
2.4067e-09
-1.75306e-10
2.03092e-09
-1.59748e-09
1.76967e-09
-2.88864e-09
1.60626e-09
-4.10422e-09
1.51992e-09
-5.28426e-09
1.48895e-09
-6.4539e-09
1.49234e-09
-7.62505e-09
1.5115e-09
-8.79884e-09
1.53121e-09
-9.96829e-09
1.54009e-09
-1.1121e-08
1.53048e-09
-1.22414e-08
1.49804e-09
-1.33129e-08
1.44127e-09
-1.43194e-08
1.36088e-09
-1.52467e-08
1.25924e-09
-1.60828e-08
1.13986e-09
-1.68188e-08
1.00694e-09
-1.7449e-08
8.65002e-10
-1.79711e-08
7.18564e-10
-1.83854e-08
5.71882e-10
-1.86951e-08
4.28768e-10
-1.89056e-08
2.92465e-10
-1.9024e-08
1.65576e-10
-1.90587e-08
5.00703e-11
-1.90193e-08
-5.2875e-11
-1.89152e-08
-1.42421e-10
-1.87565e-08
-2.18447e-10
-1.85525e-08
-2.81245e-10
-1.83125e-08
-3.31427e-10
-1.80448e-08
-3.69871e-10
-1.77572e-08
-3.97639e-10
-1.74565e-08
-4.15895e-10
-1.71485e-08
-4.25846e-10
-1.68385e-08
-4.28691e-10
-1.65306e-08
-4.25582e-10
-1.62284e-08
-4.17598e-10
-1.59347e-08
-4.05723e-10
-1.56516e-08
-3.90839e-10
-1.53808e-08
-3.73726e-10
-1.51233e-08
-3.55053e-10
-1.48799e-08
-3.35396e-10
-1.4651e-08
-3.15233e-10
-1.44366e-08
-2.94961e-10
-1.42367e-08
-2.74902e-10
-1.40509e-08
-2.55313e-10
-1.38787e-08
-2.36392e-10
-1.37195e-08
-2.18292e-10
-1.35728e-08
-2.01123e-10
-1.34377e-08
-1.84962e-10
-1.33135e-08
-1.69855e-10
-1.31994e-08
-1.55827e-10
-1.30948e-08
-1.42881e-10
-1.29987e-08
-1.31006e-10
-1.29105e-08
-1.20176e-10
-1.28294e-08
-1.10354e-10
-1.27548e-08
-1.01497e-10
-1.26859e-08
-9.35527e-11
-1.26222e-08
-8.64648e-11
-1.25631e-08
-8.01724e-11
-1.2508e-08
-7.46119e-11
-1.24564e-08
-6.97147e-11
-1.24081e-08
-6.54063e-11
-1.23624e-08
-6.15996e-11
-1.23193e-08
-5.81846e-11
-1.22785e-08
-5.50135e-11
-1.22399e-08
-5.188e-11
-1.22038e-08
-4.85006e-11
-1.21704e-08
-4.45158e-11
-1.21407e-08
-3.9529e-11
-1.21153e-08
-3.32211e-11
-1.20952e-08
-2.55646e-11
-1.20808e-08
-1.71384e-11
-1.20712e-08
-9.49828e-12
-1.20637e-08
-5.68759e-12
-1.20519e-08
-1.02056e-11
-1.20252e-08
-2.93428e-11
-1.19671e-08
-7.08291e-11
-1.18547e-08
-1.4441e-10
-1.16557e-08
-2.64068e-10
-1.13253e-08
-4.49772e-10
-1.07893e-08
-7.44143e-10
-1.32324e-09
-9.9469e-09
1.71146e-10
-5.24681e-10
4.72279e-10
-1.08467e-09
7.44901e-10
-1.25727e-09
8.71248e-10
-1.13015e-09
7.59603e-10
-7.71025e-10
3.36305e-10
-2.32333e-10
-4.59556e-10
4.46187e-10
-1.68027e-09
1.23592e-09
-3.37249e-09
2.11732e-09
-5.5794e-09
3.07811e-09
-8.34223e-09
4.11154e-09
-1.1701e-08
5.21464e-09
-1.56944e-08
6.38659e-09
-2.03596e-08
7.62711e-09
-2.57305e-08
8.93492e-09
-3.18361e-08
1.03063e-08
-3.86979e-08
1.17337e-08
-4.63273e-08
1.3205e-08
-5.47221e-08
1.47022e-08
-6.38641e-08
1.62016e-08
-7.37161e-08
1.76741e-08
-8.42198e-08
1.90854e-08
-9.52952e-08
2.03973e-08
-1.0684e-07
2.15694e-08
-1.18732e-07
2.25606e-08
-1.30829e-07
2.33312e-08
-1.42975e-07
2.38449e-08
-1.55003e-07
2.40701e-08
-1.66741e-07
2.39823e-08
-1.78016e-07
2.35645e-08
-1.88659e-07
2.2808e-08
-1.98511e-07
2.17127e-08
-2.07424e-07
2.02869e-08
-2.15269e-07
1.85467e-08
-2.21932e-07
1.65147e-08
-2.27322e-07
1.42196e-08
-2.31365e-07
1.16944e-08
-2.34009e-07
8.97597e-09
-2.35221e-07
6.10311e-09
-2.34987e-07
3.11591e-09
-2.33312e-07
5.54747e-11
-2.30207e-07
-3.03664e-09
-2.25723e-07
-6.12472e-09
-2.19897e-07
-9.17104e-09
-2.12784e-07
-1.2144e-08
-2.04447e-07
-1.5015e-08
-1.94957e-07
-1.77593e-08
-1.84388e-07
-2.0356e-08
-1.72818e-07
-2.27887e-08
-1.60329e-07
-2.50452e-08
-1.47001e-07
-2.71175e-08
-1.32915e-07
-2.90011e-08
-1.18149e-07
-3.06948e-08
-1.02779e-07
-3.21996e-08
-8.68809e-08
-3.35176e-08
-7.05249e-08
-3.46509e-08
-5.3782e-08
-3.56004e-08
-3.67224e-08
-3.63646e-08
-1.94176e-08
-3.69384e-08
-1.94249e-09
-3.73123e-08
1.5622e-08
-3.74699e-08
3.31844e-08
-3.73864e-08
5.06421e-08
-3.70384e-08
6.78816e-08
-3.64005e-08
8.47761e-08
-3.54454e-08
1.01186e-07
-3.41465e-08
1.1696e-07
-3.248e-08
1.31933e-07
-3.04274e-08
1.45933e-07
-2.79776e-08
1.58781e-07
-2.51297e-08
1.70296e-07
-2.18939e-08
1.80297e-07
-1.82939e-08
1.88614e-07
-1.43675e-08
1.95086e-07
-1.01679e-08
1.99578e-07
-5.76314e-09
2.01974e-07
-1.23674e-09
2.022e-07
3.31051e-09
2.00229e-07
7.76582e-09
1.96091e-07
1.20114e-08
1.89874e-07
1.59299e-08
1.81726e-07
1.94081e-08
1.7186e-07
2.2344e-08
1.60542e-07
2.4655e-08
1.48089e-07
2.62844e-08
1.34849e-07
2.72075e-08
1.21185e-07
2.74348e-08
1.07455e-07
2.70113e-08
9.3991e-08
2.60131e-08
8.10843e-08
2.45395e-08
6.8969e-08
2.27042e-08
5.78175e-08
2.06251e-08
4.77385e-08
1.84153e-08
3.87802e-08
1.61773e-08
3.09375e-08
1.39991e-08
2.41607e-08
1.19527e-08
1.83642e-08
1.00949e-08
1.34372e-08
8.46654e-09
9.25235e-09
7.0929e-09
5.67611e-09
5.98295e-09
2.57744e-09
5.12959e-09
-1.63984e-10
4.51109e-09
-2.65167e-09
4.09394e-09
-4.96851e-09
3.83676e-09
-7.1745e-09
3.69495e-09
-9.3082e-09
3.62604e-09
-1.13893e-08
3.59256e-09
-1.3422e-08
3.56394e-09
-1.53992e-08
3.51734e-09
-1.73063e-08
3.43752e-09
-1.91243e-08
3.31601e-09
-2.0833e-08
3.15001e-09
-2.24133e-08
2.9412e-09
-2.38486e-08
2.69453e-09
-2.51259e-08
2.41718e-09
-2.62366e-08
2.11763e-09
-2.71765e-08
1.80484e-09
-2.79455e-08
1.48763e-09
-2.85478e-08
1.17421e-09
-2.89909e-08
8.71809e-10
-2.92849e-08
5.86453e-10
-2.94422e-08
3.22857e-10
-2.94765e-08
8.44196e-11
-2.94026e-08
-1.26734e-10
-2.92354e-08
-3.09618e-10
-2.89896e-08
-4.6425e-10
-2.86794e-08
-5.91482e-10
-2.8318e-08
-6.92796e-10
-2.79178e-08
-7.70144e-10
-2.74896e-08
-8.2579e-10
-2.70433e-08
-8.62167e-10
-2.65874e-08
-8.81761e-10
-2.61291e-08
-8.87017e-10
-2.56744e-08
-8.80272e-10
-2.52283e-08
-8.63698e-10
-2.47948e-08
-8.39277e-10
-2.43768e-08
-8.08782e-10
-2.39768e-08
-7.73772e-10
-2.35962e-08
-7.35596e-10
-2.32362e-08
-6.95402e-10
-2.28973e-08
-6.54159e-10
-2.25796e-08
-6.12664e-10
-2.22829e-08
-5.7157e-10
-2.20068e-08
-5.31397e-10
-2.17507e-08
-4.92553e-10
-2.15136e-08
-4.55352e-10
-2.12947e-08
-4.20022e-10
-2.1093e-08
-3.86724e-10
-2.09073e-08
-3.55562e-10
-2.07365e-08
-3.26588e-10
-2.05796e-08
-2.99818e-10
-2.04353e-08
-2.75232e-10
-2.03027e-08
-2.52782e-10
-2.01807e-08
-2.324e-10
-2.00682e-08
-2.13999e-10
-1.99642e-08
-1.97479e-10
-1.9868e-08
-1.82728e-10
-1.97785e-08
-1.69625e-10
-1.96951e-08
-1.58043e-10
-1.9617e-08
-1.47845e-10
-1.95435e-08
-1.38881e-10
-1.94741e-08
-1.30977e-10
-1.94084e-08
-1.23915e-10
-1.9346e-08
-1.17404e-10
-1.92868e-08
-1.11044e-10
-1.9231e-08
-1.04298e-10
-1.91791e-08
-9.64963e-11
-1.91316e-08
-8.69369e-11
-1.90897e-08
-7.51168e-11
-1.90541e-08
-6.1171e-11
-1.90248e-08
-4.65081e-11
-1.89997e-08
-3.45699e-11
-1.89738e-08
-3.15522e-11
-1.89372e-08
-4.67924e-11
-1.88738e-08
-9.28017e-11
-1.87598e-08
-1.84858e-10
-1.85629e-08
-3.41224e-10
-1.8242e-08
-5.85021e-10
-1.77429e-08
-9.48834e-10
-1.70012e-08
-1.48591e-09
-2.30545e-09
-1.6019e-08
2.18718e-11
-5.46553e-10
-7.43968e-11
-9.884e-10
-4.13192e-10
-9.18477e-10
-1.08785e-09
-4.55488e-10
-2.17249e-09
3.13613e-10
-3.72988e-09
1.32506e-09
-5.81677e-09
2.53308e-09
-8.48689e-09
3.90604e-09
-1.17928e-08
5.42327e-09
-1.57868e-08
7.07203e-09
-2.05199e-08
8.84469e-09
-2.60415e-08
1.07362e-08
-3.23966e-08
1.27417e-08
-3.9624e-08
1.48545e-08
-4.77525e-08
1.70634e-08
-5.67977e-08
1.93515e-08
-6.67583e-08
2.16943e-08
-7.7612e-08
2.40588e-08
-8.93129e-08
2.6403e-08
-1.01788e-07
2.86771e-08
-1.14939e-07
3.08244e-08
-1.28637e-07
3.27834e-08
-1.42731e-07
3.44913e-08
-1.57048e-07
3.58865e-08
-1.71399e-07
3.6912e-08
-1.85586e-07
3.75184e-08
-1.99408e-07
3.76665e-08
-2.12667e-07
3.73289e-08
-2.25176e-07
3.6491e-08
-2.36762e-07
3.51509e-08
-2.47273e-07
3.33193e-08
-2.56579e-07
3.10178e-08
-2.64569e-07
2.82777e-08
-2.71161e-07
2.5138e-08
-2.7629e-07
2.16437e-08
-2.79914e-07
1.78443e-08
-2.82012e-07
1.37919e-08
-2.82576e-07
9.5404e-09
-2.81617e-07
5.14394e-09
-2.79158e-07
6.56852e-10
-2.75235e-07
-3.86757e-09
-2.69891e-07
-8.38084e-09
-2.63178e-07
-1.28378e-08
-2.55153e-07
-1.71958e-08
-2.45881e-07
-2.14162e-08
-2.35431e-07
-2.54647e-08
-2.23878e-07
-2.93118e-08
-2.11301e-07
-3.29337e-08
-1.97778e-07
-3.63119e-08
-1.83389e-07
-3.94338e-08
-1.68214e-07
-4.22922e-08
-1.52331e-07
-4.48847e-08
-1.35812e-07
-4.72132e-08
-1.1873e-07
-4.92824e-08
-1.01149e-07
-5.10983e-08
-8.31328e-08
-5.26668e-08
-6.47416e-08
-5.39916e-08
-4.60337e-08
-5.50725e-08
-2.70683e-08
-5.59038e-08
-7.90799e-09
-5.64727e-08
1.13814e-08
-5.67593e-08
3.07263e-08
-5.67312e-08
5.00366e-08
-5.63487e-08
6.92103e-08
-5.55742e-08
8.81313e-08
-5.43664e-08
1.06669e-07
-5.26841e-08
1.24678e-07
-5.04891e-08
1.42e-07
-4.77494e-08
1.58465e-07
-4.44423e-08
1.73892e-07
-4.05571e-08
1.88096e-07
-3.60976e-08
2.00886e-07
-3.10841e-08
2.12073e-07
-2.55548e-08
2.21473e-07
-1.95673e-08
2.28909e-07
-1.31992e-08
2.34221e-07
-6.54864e-09
2.37266e-07
2.65595e-10
2.3793e-07
7.10118e-09
2.36148e-07
1.37934e-08
2.31908e-07
2.01706e-08
2.25259e-07
2.60564e-08
2.16325e-07
3.12778e-08
2.05305e-07
3.56756e-08
1.92472e-07
3.91175e-08
1.78169e-07
4.15101e-08
1.62794e-07
4.28095e-08
1.46778e-07
4.30278e-08
1.30557e-07
4.22339e-08
1.14548e-07
4.0548e-08
9.91227e-08
3.813e-08
8.45837e-08
3.51641e-08
7.11568e-08
3.18422e-08
5.89842e-08
2.83499e-08
4.81284e-08
2.48549e-08
3.85804e-08
2.15007e-08
3.02726e-08
1.84027e-08
2.30922e-08
1.5647e-08
1.68964e-08
1.32886e-08
1.15275e-08
1.13519e-08
6.82626e-09
9.83085e-09
2.64407e-09