/*--------------------------------*- C++ -*----------------------------------*\
  =========                 |
  \\      /  F ield         | OpenFOAM: The Open Source CFD Toolbox
   \\    /   O peration     | Website:  https://openfoam.org
    \\  /    A nd           | Version:  8
     \\/     M anipulation  |
\*---------------------------------------------------------------------------*/
FoamFile
{
    version     2.0;
    format      ascii;
    class       volVectorField;
    location    "0.5";
    object      U;
}
// * * * * * * * * * * * * * * * * * * * * * * * * * * * * * * * * * * * * * //

dimensions      [0 1 -1 0 0 0 0];

internalField   nonuniform List<vector> 
12225
(
(-1.31749e-05 1.88254e-06 0)
(-2.01273e-05 -2.07826e-07 0)
(1.21162e-05 -1.49767e-06 0)
(7.60445e-05 -2.71449e-06 0)
(0.000167207 -3.80014e-06 0)
(0.000281931 -4.88601e-06 0)
(0.000418792 -6.02221e-06 0)
(0.00057702 -7.24305e-06 0)
(0.000755929 -8.56775e-06 0)
(0.000954781 -1.00485e-05 0)
(0.00117344 -1.18327e-05 0)
(0.00141382 -1.42628e-05 0)
(0.00168209 -1.80564e-05 0)
(0.00199082 -2.4511e-05 0)
(0.00235919 -3.45275e-05 0)
(0.00281062 -4.0806e-05 0)
(0.0033097 -7.81717e-05 0)
(0.000900844 0.00184183 0)
(-2.89409e-05 7.46746e-06 0)
(-3.37786e-05 -6.42747e-06 0)
(6.96311e-05 -2.28946e-05 0)
(0.000263708 -3.82973e-05 0)
(0.000536321 -5.27078e-05 0)
(0.000877332 -6.69919e-05 0)
(0.00128209 -8.174e-05 0)
(0.0017475 -9.71556e-05 0)
(0.00227029 -0.000113223 0)
(0.00284645 -0.000130076 0)
(0.00347238 -0.000148478 0)
(0.00414736 -0.000170358 0)
(0.00487606 -0.000199094 0)
(0.00566607 -0.000238154 0)
(0.00651001 -0.000280763 0)
(0.0073025 -0.000252153 0)
(0.0076628 0.000217578 0)
(0.00298899 0.00438012 0)
(-3.65693e-05 1.49878e-05 0)
(-2.27478e-05 -2.33597e-05 0)
(0.000161462 -7.10609e-05 0)
(0.000491871 -0.000116123 0)
(0.000949802 -0.000158679 0)
(0.00151927 -0.000200799 0)
(0.00219193 -0.000243981 0)
(0.00296141 -0.000288587 0)
(0.00382043 -0.000334267 0)
(0.00475948 -0.000380811 0)
(0.00576766 -0.000429159 0)
(0.00683437 -0.000482037 0)
(0.00794867 -0.000542714 0)
(0.00908635 -0.000606843 0)
(0.0101655 -0.000627874 0)
(0.0108885 -0.000382434 0)
(0.0105514 0.0010196 0)
(0.00505631 0.00744818 0)
(-3.77441e-05 2.12951e-05 0)
(1.11487e-05 -5.59304e-05 0)
(0.000286175 -0.000152888 0)
(0.000758494 -0.000245245 0)
(0.00140394 -0.000332966 0)
(0.00220125 -0.000419657 0)
(0.00313795 -0.000507969 0)
(0.0042034 -0.000598228 0)
(0.00538475 -0.000689129 0)
(0.00666459 -0.000779142 0)
(0.00802063 -0.000867907 0)
(0.00942527 -0.000956202 0)
(0.0108398 -0.00104086 0)
(0.0121903 -0.00109442 0)
(0.0133043 -0.000997095 0)
(0.0137346 -0.000326451 0)
(0.0126663 0.00227157 0)
(0.0071806 0.0106722 0)
(-3.39409e-05 2.21519e-05 0)
(6.54475e-05 -0.000109704 0)
(0.000440933 -0.000274421 0)
(0.00105958 -0.000432443 0)
(0.00189247 -0.000583156 0)
(0.00291359 -0.000731852 0)
(0.00410591 -0.000882339 0)
(0.00545359 -0.00103444 0)
(0.0069367 -0.00118487 0)
(0.00852761 -0.00132908 0)
(0.010189 -0.0014627 0)
(0.0118705 -0.00157977 0)
(0.0134981 -0.00166168 0)
(0.014943 -0.0016416 0)
(0.0159553 -0.00130466 0)
(0.0160235 -3.43531e-05 0)
(0.0144128 0.00379351 0)
(0.00938162 0.0136772 0)
(-2.64116e-05 1.341e-05 0)
(0.000136969 -0.00019099 0)
(0.000621279 -0.000442558 0)
(0.00138878 -0.000685236 0)
(0.00240611 -0.000917378 0)
(0.0036429 -0.00114594 0)
(0.00507723 -0.00137565 0)
(0.00668724 -0.00160506 0)
(0.0084447 -0.00182742 0)
(0.0103099 -0.0020328 0)
(0.012228 -0.00220901 0)
(0.014123 -0.00233732 0)
(0.0158838 -0.00237427 0)
(0.0173336 -0.00220181 0)
(0.0181763 -0.00150685 0)
(0.0179197 0.000473598 0)
(0.0160183 0.00543204 0)
(0.0116566 0.0163253 0)
(-1.62642e-05 -9.00425e-06 0)
(0.000221843 -0.000306584 0)
(0.000821113 -0.000664779 0)
(0.00173729 -0.00101151 0)
(0.0029324 -0.00134379 0)
(0.00437199 -0.00167012 0)
(0.00602903 -0.00199564 0)
(0.00787514 -0.00231658 0)
(0.00987299 -0.00262086 0)
(0.01197 -0.00289019 0)
(0.0140928 -0.0031002 0)
(0.0161402 -0.00321314 0)
(0.0179691 -0.0031533 0)
(0.0193698 -0.00274726 0)
(0.0200371 -0.00159832 0)
(0.0195575 0.00113592 0)
(0.0176082 0.00706484 0)
(0.0140025 0.0185758 0)
(-4.49211e-06 -4.90471e-05 0)
(0.000315552 -0.000463354 0)
(0.00103265 -0.000948523 0)
(0.00209374 -0.00141866 0)
(0.00345556 -0.00186948 0)
(0.00507976 -0.00231082 0)
(0.00693421 -0.0027476 0)
(0.00898386 -0.00317242 0)
(0.0111823 -0.00356568 0)
(0.0134643 -0.00389753 0)
(0.0157396 -0.00412698 0)
(0.0178856 -0.00419214 0)
(0.0197364 -0.00398123 0)
(0.0210699 -0.00326962 0)
(0.0216036 -0.00160379 0)
(0.0210334 0.00187048 0)
(0.0192395 0.00858635 0)
(0.016409 0.0204048 0)
(8.00898e-06 -0.000110324 0)
(0.000413023 -0.000667803 0)
(0.00124652 -0.00130061 0)
(0.00244419 -0.00191292 0)
(0.00395649 -0.00249964 0)
(0.00574136 -0.00307184 0)
(0.00776174 -0.00363346 0)
(0.00997641 -0.00417203 0)
(0.0123307 -0.00465822 0)
(0.0147486 -0.00504749 0)
(0.0171265 -0.00527856 0)
(0.0193272 -0.00526215 0)
(0.0211747 -0.00485096 0)
(0.0224531 -0.00378022 0)
(0.022926 -0.00157142 0)
(0.0224023 0.00258525 0)
(0.0209194 0.00990248 0)
(0.0188512 0.0217894 0)
(2.04205e-05 -0.000195817 0)
(0.000508745 -0.00092546 0)
(0.00145193 -0.0017265 0)
(0.0027723 -0.00249853 0)
(0.00441302 -0.00323673 0)
(0.0063284 -0.00395345 0)
(0.00847713 -0.00465095 0)
(0.0108128 -0.00531035 0)
(0.0132745 -0.00589057 0)
(0.0157787 -0.00632983 0)
(0.0182137 -0.00654412 0)
(0.0204365 -0.00641612 0)
(0.0222736 -0.00576751 0)
(0.0235314 -0.00430866 0)
(0.0240298 -0.00156657 0)
(0.0236779 0.00318469 0)
(0.0226167 0.0109286 0)
(0.021285 0.0227055 0)
(3.19925e-05 -0.000307617 0)
(0.000596921 -0.00123999 0)
(0.00163692 -0.0022293 0)
(0.00305968 -0.00317667 0)
(0.00480024 -0.00407929 0)
(0.00680958 -0.00495122 0)
(0.00904313 -0.00579255 0)
(0.0114512 -0.00657695 0)
(0.0139692 -0.00725009 0)
(0.0165106 -0.00773142 0)
(0.0189623 -0.00791342 0)
(0.0211848 -0.00765259 0)
(0.0230182 -0.00674704 0)
(0.0243013 -0.00489846 0)
(0.024911 -0.00166429 0)
(0.0248337 0.00357548 0)
(0.024267 0.0115888 0)
(0.023643 0.0231245 0)
(4.13812e-05 -0.000435297 0)
(0.000665685 -0.00158129 0)
(0.00177638 -0.00276038 0)
(0.00326798 -0.0038803 0)
(0.00506761 -0.00494238 0)
(0.00712377 -0.00596308 0)
(0.00939025 -0.00694046 0)
(0.0118164 -0.00784092 0)
(0.0143379 -0.00859738 0)
(0.0168698 -0.00911182 0)
(0.0193041 -0.0092561 0)
(0.0215122 -0.00886624 0)
(0.0233546 -0.00772668 0)
(0.0247035 -0.00554437 0)
(0.0254823 -0.00192005 0)
(0.0257258 0.00366306 0)
(0.02565 0.0117989 0)
(0.0256476 0.0230275 0)
(4.97489e-05 -0.000582618 0)
(0.000719774 -0.00196303 0)
(0.00187978 -0.00334259 0)
(0.00341289 -0.00464081 0)
(0.00523831 -0.00586527 0)
(0.00730275 -0.00703583 0)
(0.00955986 -0.00814894 0)
(0.0119603 -0.00916392 0)
(0.0144428 -0.0100013 0)
(0.0169285 -0.0105465 0)
(0.0193195 -0.0106529 0)
(0.0215034 -0.0101401 0)
(0.0233651 -0.0087859 0)
(0.0248102 -0.00631116 0)
(0.0258004 -0.00236688 0)
(0.0264004 0.00346352 0)
(0.026822 0.0116241 0)
(0.027407 0.0224904 0)
(5.75397e-05 -0.000774771 0)
(0.000757879 -0.00245068 0)
(0.00194006 -0.0040712 0)
(0.00347802 -0.00557807 0)
(0.00528295 -0.00698911 0)
(0.00730088 -0.00832974 0)
(0.0094876 -0.00959569 0)
(0.0117983 -0.0107392 0)
(0.0141795 -0.0116679 0)
(0.0165641 -0.0122506 0)
(0.0188716 -0.0123231 0)
(0.021013 -0.0116926 0)
(0.0229039 -0.0101365 0)
(0.0244846 -0.00739989 0)
(0.0257492 -0.00319386 0)
(0.0267777 0.00279439 0)
(0.0277598 0.0108696 0)
(0.0289756 0.0212668 0)
(6.28595e-05 -0.0010164 0)
(0.000762749 -0.00305402 0)
(0.00191632 -0.00495519 0)
(0.00339357 -0.00669671 0)
(0.00510054 -0.00831285 0)
(0.0069849 -0.00983794 0)
(0.0090081 -0.0112693 0)
(0.0111345 -0.0125537 0)
(0.0133241 -0.0135876 0)
(0.0155287 -0.0142251 0)
(0.0176923 -0.0142882 0)
(0.0197561 -0.0135767 0)
(0.0216695 -0.0118757 0)
(0.0234058 -0.00896133 0)
(0.0249825 -0.00460824 0)
(0.02648 0.0013986 0)
(0.0280533 0.00924304 0)
(0.0299174 0.0190469 0)
(6.28998e-05 -0.00130306 0)
(0.00070932 -0.00375909 0)
(0.0017494 -0.00596917 0)
(0.003059 -0.00795765 0)
(0.00454663 -0.00978343 0)
(0.00616606 -0.011495 0)
(0.00788919 -0.0130956 0)
(0.00969496 -0.0145309 0)
(0.0115631 -0.0156906 0)
(0.0134709 -0.0164192 0)
(0.0153926 -0.016531 0)
(0.0173038 -0.015825 0)
(0.019188 -0.0140994 0)
(0.0210468 -0.0111639 0)
(0.0229115 -0.00685112 0)
(0.0248521 -0.00102745 0)
(0.0269811 0.00639568 0)
(0.0294556 0.0154542 0)
(5.38754e-05 -0.00160885 0)
(0.000563406 -0.00449931 0)
(0.0013596 -0.00701312 0)
(0.00233993 -0.00923049 0)
(0.00342931 -0.0112433 0)
(0.00459489 -0.0131209 0)
(0.00582437 -0.0148794 0)
(0.00711633 -0.0164705 0)
(0.00847499 -0.0177851 0)
(0.009907 -0.0186666 0)
(0.0114202 -0.0189292 0)
(0.0130245 -0.0183774 0)
(0.0147353 -0.0168245 0)
(0.0165769 -0.0141093 0)
(0.0185878 -0.0101085 0)
(0.0208242 -0.00474567 0)
(0.0233597 0.00200439 0)
(0.0262999 0.0101169 0)
(3.0665e-05 -0.00186441 0)
(0.000283226 -0.00510453 0)
(0.000653529 -0.00784295 0)
(0.0010828 -0.0102125 0)
(0.00153223 -0.0123414 0)
(0.00199146 -0.0143258 0)
(0.00246819 -0.0162026 0)
(0.00298272 -0.0179393 0)
(0.00356449 -0.0194389 0)
(0.00424911 -0.0205544 0)
(0.00507607 -0.021109 0)
(0.0060871 -0.0209175 0)
(0.00732526 -0.0198071 0)
(0.00883456 -0.0176357 0)
(0.0106597 -0.0143044 0)
(0.0128468 -0.00976553 0)
(0.0154446 -0.0040238 0)
(0.0185187 0.00286859 0)
(-1.42406e-05 -0.00192294 0)
(-0.000162763 -0.00522386 0)
(-0.000427573 -0.00796506 0)
(-0.000798151 -0.0103025 0)
(-0.00125751 -0.0123893 0)
(-0.00178713 -0.0143464 0)
(-0.00235999 -0.0162364 0)
(-0.0029383 -0.0180521 0)
(-0.00347357 -0.0197212 0)
(-0.00390812 -0.0211195 0)
(-0.00417759 -0.0220905 0)
(-0.00421425 -0.0224659 0)
(-0.00395062 -0.0220867 0)
(-0.00332321 -0.0208205 0)
(-0.00227591 -0.0185745 0)
(-0.000761352 -0.0153033 0)
(0.0012598 -0.0110098 0)
(0.00383494 -0.00574105 0)
(-5.7341e-05 -0.00165372 0)
(-0.00058306 -0.004553 0)
(-0.00143456 -0.00697476 0)
(-0.00253641 -0.00903516 0)
(-0.00382437 -0.0108745 0)
(-0.00526079 -0.0126178 0)
(-0.00681118 -0.0143425 0)
(-0.00843437 -0.0160644 0)
(-0.0100786 -0.017739 0)
(-0.0116801 -0.0192723 0)
(-0.0131644 -0.0205358 0)
(-0.0144493 -0.021385 0)
(-0.01545 -0.0216772 0)
(-0.0160842 -0.0212874 0)
(-0.0162785 -0.0201213 0)
(-0.0159714 -0.0181229 0)
(-0.015112 -0.0152783 0)
(-0.0136495 -0.0116137 0)
(-7.72191e-05 -0.00127307 0)
(-0.0008125 -0.00363262 0)
(-0.00199752 -0.00564761 0)
(-0.00351986 -0.00736605 0)
(-0.00529052 -0.00889867 0)
(-0.00726412 -0.0103608 0)
(-0.00940691 -0.011833 0)
(-0.0116835 -0.0133446 0)
(-0.0140498 -0.0148733 0)
(-0.0164486 -0.0163521 0)
(-0.0188092 -0.0176813 0)
(-0.0210486 -0.0187428 0)
(-0.0230762 -0.019415 0)
(-0.0248001 -0.0195859 0)
(-0.0261333 -0.019165 0)
(-0.0269997 -0.0180905 0)
(-0.0273331 -0.0163341 0)
(-0.0270732 -0.0139029 0)
(-7.81592e-05 -0.000874051 0)
(-0.000879533 -0.00266428 0)
(-0.00219129 -0.00424885 0)
(-0.00388635 -0.0056048 0)
(-0.0058666 -0.00680979 0)
(-0.00808443 -0.00796267 0)
(-0.01051 -0.00913917 0)
(-0.0131173 -0.0103751 0)
(-0.0158748 -0.0116639 0)
(-0.0187387 -0.0129618 0)
(-0.0216501 -0.0141965 0)
(-0.0245346 -0.0152775 0)
(-0.0273056 -0.0161074 0)
(-0.0298701 -0.0165926 0)
(-0.0321349 -0.0166523 0)
(-0.0340136 -0.0162257 0)
(-0.0354276 -0.0152764 0)
(-0.0363059 -0.0137966 0)
(-6.38085e-05 -0.000530422 0)
(-0.000814053 -0.00181003 0)
(-0.00208524 -0.00299579 0)
(-0.00375245 -0.0040116 0)
(-0.00571836 -0.0049075 0)
(-0.00793518 -0.0057637 0)
(-0.0103772 -0.00664596 0)
(-0.0130278 -0.00758997 0)
(-0.0158686 -0.00859877 0)
(-0.0188713 -0.00964618 0)
(-0.0219925 -0.0106829 0)
(-0.0251718 -0.0116439 0)
(-0.0283341 -0.0124565 0)
(-0.0313936 -0.0130477 0)
(-0.0342592 -0.0133517 0)
(-0.0368419 -0.0133147 0)
(-0.0390573 -0.0128994 0)
(-0.0408276 -0.0120896 0)
(-3.99295e-05 -0.000274097 0)
(-0.000663347 -0.00114006 0)
(-0.00178396 -0.00198479 0)
(-0.00328813 -0.00270579 0)
(-0.00508408 -0.00333418 0)
(-0.00712436 -0.003932 0)
(-0.00938662 -0.00455232 0)
(-0.011862 -0.00522631 0)
(-0.0145434 -0.00596123 0)
(-0.0174165 -0.00674282 0)
(-0.0204533 -0.00753954 0)
(-0.0236097 -0.0083076 0)
(-0.0268254 -0.00899615 0)
(-0.0300273 -0.0095526 0)
(-0.0331339 -0.00992735 0)
(-0.0360609 -0.0100777 0)
(-0.0387258 -0.00997099 0)
(-0.0410508 -0.00958853 0)
(-1.25141e-05 -0.000107485 0)
(-0.000475282 -0.000661741 0)
(-0.00139012 -0.0012307 0)
(-0.00265729 -0.00171156 0)
(-0.00419226 -0.00212407 0)
(-0.00594862 -0.00251371 0)
(-0.00790691 -0.00292015 0)
(-0.0100639 -0.00336775 0)
(-0.0124208 -0.00386432 0)
(-0.0149743 -0.00440289 0)
(-0.0177093 -0.00496457 0)
(-0.0205966 -0.00552174 0)
(-0.0235917 -0.00604134 0)
(-0.0266365 -0.00648818 0)
(-0.029663 -0.00682802 0)
(-0.0325977 -0.00703014 0)
(-0.0353658 -0.00706933 0)
(-0.0378964 -0.00692874 0)
(1.31478e-05 -1.62145e-05 0)
(-0.000289301 -0.00034835 0)
(-0.000985267 -0.000704561 0)
(-0.00198803 -0.00100067 0)
(-0.0032213 -0.00124987 0)
(-0.00464134 -0.00148319 0)
(-0.00623163 -0.00172766 0)
(-0.00799266 -0.00200027 0)
(-0.00993094 -0.00230741 0)
(-0.0120502 -0.00264612 0)
(-0.0143453 -0.00300594 0)
(-0.0167988 -0.00337076 0)
(-0.0193804 -0.00372083 0)
(-0.0220471 -0.00403459 0)
(-0.0247458 -0.00429053 0)
(-0.0274169 -0.00446873 0)
(-0.0299977 -0.00455205 0)
(-0.0324282 -0.00452767 0)
(3.26953e-05 2.04249e-05 0)
(-0.000133403 -0.000160689 0)
(-0.000624325 -0.000360848 0)
(-0.0013653 -0.000523495 0)
(-0.00229016 -0.000657423 0)
(-0.00336036 -0.000781588 0)
(-0.00456268 -0.000912275 0)
(-0.00589976 -0.0010598 0)
(-0.00738044 -0.00122841 0)
(-0.0090122 -0.0014171 0)
(-0.010796 -0.00162065 0)
(-0.0127233 -0.0018307 0)
(-0.014775 -0.00203669 0)
(-0.0169216 -0.00222689 0)
(-0.0191248 -0.00238934 0)
(-0.0213398 -0.00251269 0)
(-0.0235177 -0.00258685 0)
(-0.0256122 -0.00260355 0)
(4.25773e-05 2.42523e-05 0)
(-2.44055e-05 -6.01155e-05 0)
(-0.000337802 -0.000154002 0)
(-0.000835863 -0.00022818 0)
(-0.00146582 -0.00028775 0)
(-0.00219717 -0.000342389 0)
(-0.00302043 -0.000400197 0)
(-0.00393901 -0.000466298 0)
(-0.00496162 -0.000542918 0)
(-0.00609645 -0.000629841 0)
(-0.00734732 -0.000724903 0)
(-0.00871131 -0.000824459 0)
(-0.0101778 -0.000923828 0)
(-0.0117287 -0.00101772 0)
(-0.0133388 -0.00110062 0)
(-0.0149777 -0.00116718 0)
(-0.0166112 -0.00121252 0)
(-0.0182068 -0.0012321 0)
(3.927e-05 1.45786e-05 0)
(2.96994e-05 -1.45957e-05 0)
(-0.000137416 -4.56412e-05 0)
(-0.000417968 -6.92887e-05 0)
(-0.000776761 -8.76513e-05 0)
(-0.00119396 -0.000104267 0)
(-0.00166397 -0.000121977 0)
(-0.00218975 -0.000142559 0)
(-0.00277782 -0.000166816 0)
(-0.00343463 -0.000194753 0)
(-0.00416409 -0.000225742 0)
(-0.00496617 -0.000258675 0)
(-0.0058362 -0.000292099 0)
(-0.00676482 -0.000324344 0)
(-0.00773838 -0.000353636 0)
(-0.00873967 -0.000378203 0)
(-0.00974858 -0.000396332 0)
(-0.010746 -0.000405962 0)
(1.98236e-05 4.11384e-06 0)
(2.78493e-05 -2.60957e-07 0)
(-2.19775e-05 -2.78078e-06 0)
(-0.000111185 -4.55093e-06 0)
(-0.000226429 -5.79145e-06 0)
(-0.000360431 -6.87854e-06 0)
(-0.000511378 -8.06754e-06 0)
(-0.00068063 -9.51426e-06 0)
(-0.000870885 -1.12921e-05 0)
(-0.00108487 -1.34112e-05 0)
(-0.00132451 -1.58323e-05 0)
(-0.00159036 -1.84797e-05 0)
(-0.00188145 -2.1249e-05 0)
(-0.00219512 -2.40175e-05 0)
(-0.00252724 -2.66503e-05 0)
(-0.00287234 -2.90165e-05 0)
(-0.00322365 -3.09162e-05 0)
(-0.00357462 -3.19779e-05 0)
(3.48498e-05 -8.09932e-05 3.99298e-23)
(0.000237742 -0.000186133 -5.13468e-23)
(0.000563044 -0.000245512 0)
(0.000957116 -0.000269698 0)
(0.00135795 -0.000270595 0)
(0.00172355 -0.000256507 4.72968e-23)
(0.00202625 -0.000233532 0)
(0.00224714 -0.000206097 0)
(0.0023733 -0.000177161 0)
(0.00239574 -0.000148461 0)
(0.00230791 -0.000120734 -2.84381e-23)
(0.00210438 -9.40687e-05 0)
(0.00177965 -6.80859e-05 0)
(0.00132758 -4.20802e-05 0)
(0.000740965 -1.51694e-05 0)
(1.13965e-05 1.36008e-05 3.30191e-24)
(-0.000870683 4.51827e-05 0)
(-0.00191565 8.04763e-05 0)
(-0.00313422 0.000120274 0)
(-0.00453682 0.000165211 0)
(-0.00613285 0.000215722 0)
(-0.00792995 0.000272023 0)
(-0.00993316 0.000334072 0)
(-0.0121441 0.000401549 7.72479e-23)
(-0.0145602 0.000473822 -8.73542e-23)
(-0.017174 0.000549922 9.72211e-23)
(-0.0199726 0.000628535 1.06647e-22)
(-0.0229373 0.000707992 0)
(-0.0260434 0.000786297 0)
(-0.0292598 0.000861157 -1.2993e-22)
(-0.0325499 0.000930057 -1.35161e-22)
(-0.0358715 0.000990339 0)
(-0.0391782 0.00103932 0)
(-0.0424196 0.00107441 -1.39536e-22)
(-0.045543 0.00109326 0)
(-0.0484945 0.00109391 0)
(-0.0512203 0.00107488 1.22093e-22)
(-0.0536682 0.00103534 0)
(-0.0557892 0.000975168 9.62995e-23)
(-0.0575381 0.000894912 1.58028e-22)
(-0.0588754 0.000795812 0)
(-0.0597687 0.000679262 0)
(-0.0601916 0.000546639 0)
(-0.0601228 0.000404027 0)
(-0.0595494 0.000252059 0)
(-0.058471 9.3918e-05 -1.5678e-22)
(-0.0568919 -6.64513e-05 -2.22148e-22)
(-0.054823 -0.000225662 -2.89206e-22)
(-0.0522819 -0.000380744 0)
(-0.0492913 -0.000529109 4.24747e-22)
(-0.0458784 -0.000668604 0)
(-0.0420738 -0.000797537 -5.55751e-22)
(-0.0379107 -0.000914658 -6.17069e-22)
(-0.0334239 -0.00101911 0)
(-0.0286495 -0.00111032 0)
(-0.0236241 -0.00118794 0)
(-0.0183854 -0.00125167 -8.11574e-22)
(-0.0129716 -0.00130115 0)
(-0.00742293 -0.00133561 0)
(-0.00178211 -0.0013535 0)
(0.00390701 -0.00135315 0)
(0.0095982 -0.00133369 0)
(0.0152379 -0.00129509 0)
(0.0207677 -0.00123702 0)
(0.0261254 -0.00115893 0)
(0.0312449 -0.00106062 6.77118e-22)
(0.036057 -0.000942513 0)
(0.0404906 -0.000805794 0)
(0.0444749 -0.00065255 -4.67093e-22)
(0.0479419 -0.000485808 -3.87568e-22)
(0.0508292 -0.0003095 0)
(0.053083 -0.000128336 2.22305e-22)
(0.0546613 5.23551e-05 -1.39477e-22)
(0.0555368 0.000226592 0)
(0.0556974 0.000388143 -1.93389e-23)
(0.0551522 0.000533436 0)
(0.053931 0.000657192 0)
(0.0520804 0.000756083 2.20929e-22)
(0.0496652 0.000828108 0)
(0.0467658 0.000872483 -3.20322e-22)
(0.0434747 0.000889808 0)
(0.0398929 0.000882036 3.88218e-22)
(0.036125 0.000852246 4.10667e-22)
(0.032274 0.000804337 4.26063e-22)
(0.0284371 0.000742679 8.70152e-22)
(0.024701 0.000671756 -8.76984e-22)
(0.0211394 0.000595829 0)
(0.0178102 0.000518655 0)
(0.0147555 0.000443291 0)
(0.0120014 0.000371989 -8.26104e-22)
(0.00956024 0.000306198 -8.01676e-22)
(0.00743202 0.000246676 7.75169e-22)
(0.00560726 0.000193666 0)
(0.0040689 0.000147118 -7.19691e-22)
(0.00279404 0.000106897 -6.92218e-22)
(0.00175527 7.2912e-05 -6.65713e-22)
(0.000921645 4.5154e-05 0)
(0.00025973 2.36305e-05 0)
(-0.000265149 8.25246e-06 0)
(-0.000687362 -1.27441e-06 -5.76291e-22)
(-0.00103917 -5.52713e-06 0)
(-0.00134908 -5.37065e-06 0)
(-0.00164045 -1.87465e-06 5.31449e-22)
(-0.00193079 3.86371e-06 0)
(-0.00223167 1.07971e-05 0)
(-0.00254917 1.80199e-05 5.0317e-22)
(-0.00288469 2.48172e-05 0)
(-0.00323594 3.06767e-05 0)
(-0.00359803 3.52727e-05 -4.83849e-22)
(-0.00396443 3.84374e-05 -4.78152e-22)
(-0.00432781 4.01283e-05 0)
(-0.00468073 4.03978e-05 4.6667e-22)
(-0.00501616 3.93677e-05 0)
(-0.00532787 3.7208e-05 -4.54231e-22)
(-0.0056107 3.41194e-05 0)
(-0.00586069 3.03178e-05 -4.40317e-22)
(-0.00607519 2.60218e-05 -4.3278e-22)
(-0.00625277 2.14414e-05 0)
(-0.0063932 1.67692e-05 0)
(-0.00649729 1.21718e-05 0)
(-0.00656676 7.78415e-06 0)
(-0.00660405 3.73218e-06 0)
(-0.00661205 1.85344e-07 0)
(-0.00659403 -2.97692e-06 0)
(-0.00655356 -5.68369e-06 -3.6467e-22)
(-0.00649413 -7.90333e-06 3.5614e-22)
(-0.0064192 -9.65148e-06 0)
(-0.00633204 -1.0961e-05 0)
(-0.00623569 -1.18726e-05 0)
(-0.00613292 -1.24319e-05 0)
(-0.00602616 -1.26871e-05 6.338e-22)
(-0.00591754 -1.26862e-05 0)
(-0.00580885 -1.24752e-05 -6.06293e-22)
(-0.0057016 -1.20969e-05 5.934e-22)
(-0.005597 -1.15901e-05 0)
(-0.005496 -1.0989e-05 0)
(-0.00539934 -1.0323e-05 0)
(-0.00530754 -9.61699e-06 -5.47106e-22)
(-0.00522096 -8.89174e-06 -5.36707e-22)
(-0.00513981 -8.16395e-06 0)
(-0.00506416 -7.44685e-06 -5.17083e-22)
(-0.00499402 -6.75066e-06 -5.07791e-22)
(-0.0049293 -6.083e-06 4.98803e-22)
(-0.00486983 -5.44932e-06 0)
(-0.00481541 -4.85329e-06 0)
(-0.00476582 -4.29713e-06 4.73352e-22)
(-0.00472079 -3.7819e-06 0)
(-0.00468003 -3.30775e-06 0)
(-0.00464325 -2.87408e-06 0)
(-0.00461018 -2.47975e-06 0)
(-0.0045805 -2.12316e-06 -4.34452e-22)
(-0.00455394 -1.80242e-06 -4.27013e-22)
(-0.00453022 -1.51537e-06 0)
(-0.00450907 -1.25973e-06 -4.12352e-22)
(-0.00449024 -1.03309e-06 0)
(-0.00447348 -8.33002e-07 0)
(-0.00445858 -6.56983e-07 -3.90739e-22)
(-0.00444533 -5.02564e-07 0)
(-0.00443354 -3.67244e-07 -3.76483e-22)
(-0.00442304 -2.48422e-07 0)
(-0.00441368 -1.43204e-07 0)
(-0.00440536 -4.80638e-08 -3.55211e-22)
(-0.00439798 4.17291e-08 0)
(-0.00439151 1.32636e-07 -3.41052e-22)
(-0.004386 2.33552e-07 0)
(-0.0043816 3.56625e-07 0)
(-0.00437857 5.15886e-07 0)
(-0.00437733 7.23238e-07 3.12599e-22)
(-0.00437838 9.78259e-07 0)
(-0.00438222 1.24532e-06 -2.98098e-22)
(-0.00438916 1.48077e-06 0)
(-0.00439881 1.81438e-06 0)
(-0.00440972 2.01238e-06 0)
(-0.00441889 1.99845e-06 0)
(-0.00442118 1.50395e-06 0)
(-0.00440886 2.07872e-07 0)
(-0.00436912 -2.60139e-06 0)
(-0.00428784 -8.25791e-06 4.62769e-22)
(-0.00415885 -9.91352e-06 0)
(-0.00368936 -7.52577e-05 0)
(5.41417e-05 -0.000462681 -1.29357e-22)
(0.000389306 -0.00105691 1.68254e-22)
(0.000862699 -0.00136823 0)
(0.00138167 -0.00145312 -1.11784e-22)
(0.00184661 -0.00136717 0)
(0.00218546 -0.00115791 -5.04193e-23)
(0.0023455 -0.000862958 9.97282e-23)
(0.0022861 -0.00051023 9.3543e-23)
(0.00197477 -0.000119154 0)
(0.00138485 0.000298185 7.81042e-23)
(0.000492971 0.000735254 3.04905e-23)
(-0.00072271 0.00118958 0)
(-0.00228363 0.00166165 0)
(-0.00421162 0.00215378 0)
(-0.0065292 0.0026691 0)
(-0.00925928 0.00321058 -3.48574e-24)
(-0.0124243 0.00378035 0)
(-0.0160454 0.00437895 2.35195e-23)
(-0.0201402 0.00500488 0)
(-0.0247218 0.00565421 0)
(-0.0297963 0.00632038 -7.67482e-23)
(-0.035361 0.00699417 0)
(-0.0414025 0.00766374 1.15458e-22)
(-0.0478952 0.00831487 -7.83544e-23)
(-0.0548002 0.00893131 8.80442e-23)
(-0.0620644 0.00949528 -9.73604e-23)
(-0.0696209 0.00998808 -1.06117e-22)
(-0.0773891 0.0103908 0)
(-0.0852762 0.0106853 0)
(-0.0931792 0.0108546 1.2697e-22)
(-0.100987 0.0108845 -1.20607e-22)
(-0.108584 0.0107636 0)
(-0.115853 0.0104841 0)
(-0.122675 0.0100426 1.33981e-22)
(-0.12894 0.00943988 0)
(-0.13454 0.00868124 0)
(-0.139381 0.00777615 -1.16557e-22)
(-0.143377 0.00673794 0)
(-0.146458 0.00558323 1.0429e-22)
(-0.148564 0.00433094 -1.51084e-22)
(-0.149654 0.00300121 0)
(-0.149703 0.00161639 0)
(-0.148689 0.00020237 -8.18699e-23)
(-0.14662 -0.00121922 2.22439e-23)
(-0.143512 -0.00262696 1.35148e-22)
(-0.13939 -0.00399992 -1.035e-22)
(-0.134292 -0.00531991 2.16649e-22)
(-0.128261 -0.00657162 7.98285e-22)
(-0.121352 -0.00774258 -6.50423e-22)
(-0.11362 -0.00882322 -4.21149e-22)
(-0.105128 -0.00980676 0)
(-0.0959396 -0.010689 5.58736e-22)
(-0.0861188 -0.0114679 -5.68128e-22)
(-0.0757312 -0.0121431 0)
(-0.0648418 -0.0127154 0)
(-0.0535148 -0.013186 0)
(-0.0418141 -0.013556 8.52289e-22)
(-0.029804 -0.0138253 0)
(-0.0175502 -0.0139925 -1.79524e-21)
(-0.00512266 -0.0140538 0)
(0.00740522 -0.0140042 -1.82865e-21)
(0.0199572 -0.0138356 0)
(0.0324426 -0.0135407 1.69013e-21)
(0.0447625 -0.0131125 0)
(0.0568105 -0.0125441 -1.48058e-21)
(0.0684704 -0.01183 6.51138e-22)
(0.0796168 -0.010967 0)
(0.090117 -0.00995582 1.06312e-21)
(0.0998326 -0.00880181 4.752e-22)
(0.108623 -0.00751569 3.92393e-22)
(0.116351 -0.00611407 0)
(0.122882 -0.00461965 1.84846e-22)
(0.128098 -0.00306098 1.39897e-22)
(0.131894 -0.0014721 0)
(0.134192 0.000107928 1.93679e-23)
(0.134939 0.00163793 -2.0998e-22)
(0.134121 0.00307572 0)
(0.131767 0.00438247 -2.21003e-22)
(0.127944 0.00552392 0)
(0.122764 0.0064714 9.69658e-22)
(0.116377 0.00720387 0)
(0.10897 0.00770988 -1.17382e-21)
(0.100758 0.00798848 -4.18523e-22)
(0.0919782 0.00804927 4.21806e-22)
(0.0828717 0.00791151 8.61571e-22)
(0.0736773 0.00760236 -8.70291e-22)
(0.0646167 0.00715452 0)
(0.0558851 0.00660334 0)
(0.0476431 0.005984 0)
(0.0400129 0.0053291 2.61733e-21)
(0.0330769 0.00466685 8.68336e-22)
(0.02688 0.00402027 -8.45342e-22)
(0.0214337 0.0034072 0)
(0.0167208 0.00284098 -7.60073e-22)
(0.0127009 0.00233136 7.67614e-22)
(0.00931501 0.00188532 7.41439e-22)
(0.0064903 0.0015074 0)
(0.00414454 0.00119964 0)
(0.00219085 0.000961214 0)
(0.000542576 0.000788207 6.50746e-22)
(-0.000881806 0.000673687 0)
(-0.00215467 0.000608183 -1.21731e-21)
(-0.00333554 0.000580542 -1.78892e-21)
(-0.00446952 0.000579406 1.16437e-21)
(-0.0055872 0.000594076 0)
(-0.00670569 0.000615289 5.58012e-22)
(-0.00783064 0.000635652 0)
(-0.00895868 0.000649778 1.09524e-21)
(-0.01008 0.000654178 -5.37199e-22)
(-0.0111808 0.000647014 -5.31193e-22)
(-0.0122452 0.000627794 0)
(-0.0132571 0.000597058 -1.56953e-21)
(-0.0142017 0.000556093 1.03134e-21)
(-0.015066 0.000506679 5.11073e-22)
(-0.0158396 0.000450881 0)
(-0.0165154 0.000390867 4.95546e-22)
(-0.0170891 0.000328766 1.45893e-21)
(-0.0175595 0.000266553 0)
(-0.0179281 0.000205975 9.3732e-22)
(-0.0181987 0.000148487 9.19219e-22)
(-0.0183773 9.52352e-05 9.00699e-22)
(-0.0184711 4.70677e-05 0)
(-0.0184886 4.60625e-06 0)
(-0.0184388 -3.20597e-05 0)
(-0.0183312 -6.28778e-05 -4.12782e-22)
(-0.0181749 -8.79922e-05 -4.02938e-22)
(-0.017979 -0.000107725 0)
(-0.0177518 -0.000122513 -7.70658e-22)
(-0.0175012 -0.000132859 -7.53483e-22)
(-0.0172342 -0.000139304 0)
(-0.0169569 -0.000142394 -7.19871e-22)
(-0.0166746 -0.000142663 -1.41101e-21)
(-0.0163921 -0.000140615 6.89747e-22)
(-0.016113 -0.000136713 6.77568e-22)
(-0.0158404 -0.000131374 0)
(-0.0155769 -0.000124963 0)
(-0.0153242 -0.000117798 0)
(-0.0150837 -0.000110146 6.24898e-22)
(-0.0148565 -0.000102233 -6.14963e-22)
(-0.014643 -9.42409e-05 -1.20641e-21)
(-0.0144435 -8.63167e-05 5.91952e-22)
(-0.0142581 -7.8576e-05 -5.8289e-22)
(-0.0140866 -7.11071e-05 -5.71862e-22)
(-0.0139286 -6.39754e-05 0)
(-0.0137836 -5.72273e-05 0)
(-0.0136511 -5.08933e-05 5.44593e-22)
(-0.0135305 -4.49908e-05 0)
(-0.0134209 -3.95271e-05 0)
(-0.0133218 -3.45008e-05 -1.03576e-21)
(-0.0132324 -2.9904e-05 0)
(-0.0131519 -2.57234e-05 -5.01217e-22)
(-0.0130796 -2.19416e-05 4.92562e-22)
(-0.0130148 -1.85383e-05 0)
(-0.0129568 -1.5491e-05 -4.76514e-22)
(-0.012905 -1.27753e-05 0)
(-0.0128587 -1.03662e-05 0)
(-0.0128174 -8.23777e-06 4.52155e-22)
(-0.0127805 -6.36389e-06 -8.8846e-22)
(-0.0127475 -4.71778e-06 4.36202e-22)
(-0.012718 -3.2713e-06 0)
(-0.0126915 -1.99319e-06 0)
(-0.0126678 -8.45827e-07 -4.12357e-22)
(-0.0126466 2.19788e-07 0)
(-0.0126279 1.27009e-06 -3.96381e-22)
(-0.0126116 2.39461e-06 0)
(-0.0125981 3.70715e-06 0)
(-0.0125879 5.3335e-06 0)
(-0.012582 7.37684e-06 -3.64201e-22)
(-0.0125813 9.85042e-06 0)
(-0.0125867 1.25735e-05 3.47732e-22)
(-0.0125982 1.51005e-05 0)
(-0.0126143 1.68315e-05 0)
(-0.0126303 1.63697e-05 -6.43317e-22)
(-0.0126378 1.20732e-05 6.24841e-22)
(-0.0126227 1.7174e-06 0)
(-0.0125644 -1.75942e-05 0)
(-0.012432 -4.99915e-05 0)
(-0.012193 -0.000101699 -1.63095e-21)
(-0.0118146 -0.000189535 0)
(-0.0108943 -0.000394573 9.96494e-22)
(4.5993e-05 -0.000876478 -8.94609e-24)
(0.000289109 -0.0018872 -2.37805e-22)
(0.000560179 -0.00230327 0)
(0.000758492 -0.00226241 2.32804e-22)
(0.000783881 -0.00187689 0)
(0.000561357 -0.00123551 0)
(3.19991e-05 -0.000406415 8.78423e-24)
(-0.000853828 0.000560545 -9.36363e-23)
(-0.00213987 0.001631 -9.57164e-23)
(-0.00386633 0.00278274 -7.75938e-23)
(-0.0060712 0.00400317 0)
(-0.00879123 0.00528667 0)
(-0.0120624 0.00663208 5.91323e-23)
(-0.0159194 0.00804038 9.56936e-23)
(-0.0203953 0.00951262 -7.13228e-23)
(-0.0255195 0.0110479 0)
(-0.0313162 0.0126418 -1.6933e-23)
(-0.0378018 0.0142848 -2.25824e-23)
(-0.0449821 0.0159614 0)
(-0.0528497 0.0176494 7.93101e-23)
(-0.0613816 0.0193205 7.25453e-23)
(-0.0705364 0.0209398 -1.52714e-22)
(-0.0802533 0.0224677 -1.07995e-22)
(-0.0904516 0.0238607 0)
(-0.101031 0.0250736 2.72118e-22)
(-0.111873 0.0260612 3.12588e-22)
(-0.122843 0.0267806 0)
(-0.133796 0.0271937 3.90493e-22)
(-0.144578 0.0272688 0)
(-0.155033 0.0269824 4.58574e-22)
(-0.165006 0.0263206 2.29543e-22)
(-0.174347 0.0252796 0)
(-0.182917 0.0238657 0)
(-0.190589 0.0220949 0)
(-0.197253 0.0199924 0)
(-0.202813 0.0175907 0)
(-0.207194 0.0149287 0)
(-0.210336 0.0120502 4.7578e-22)
(-0.212201 0.00900159 -6.15767e-22)
(-0.212766 0.00583087 0)
(-0.212022 0.00258638 0)
(-0.209973 -0.000682386 0)
(-0.206652 -0.00392692 -7.95448e-23)
(-0.202093 -0.00710705 -2.06956e-23)
(-0.196337 -0.010185 -1.72714e-22)
(-0.189434 -0.0131283 3.98996e-22)
(-0.181444 -0.0159102 2.80303e-22)
(-0.172431 -0.0185088 -4.82724e-22)
(-0.162463 -0.0209076 7.60498e-23)
(-0.15161 -0.0230956 -6.66941e-22)
(-0.139944 -0.0250664 0)
(-0.127538 -0.0268179 -9.31007e-22)
(-0.114461 -0.0283516 7.32089e-23)
(-0.100784 -0.0296712 0)
(-0.0865739 -0.0307821 0)
(-0.0718955 -0.0316896 1.41073e-21)
(-0.0568124 -0.032398 0)
(-0.0413875 -0.0329093 0)
(-0.0256846 -0.0332225 -1.59394e-21)
(-0.00977157 -0.0333323 -3.4432e-21)
(0.00627963 -0.0332302 1.79167e-21)
(0.0223993 -0.0328986 0)
(0.0384979 -0.0323202 -1.64351e-21)
(0.054474 -0.0314767 0)
(0.0702174 -0.0303503 -1.30249e-21)
(0.0856059 -0.0289251 -1.30104e-21)
(0.100505 -0.0271888 2.20466e-21)
(0.114767 -0.025135 8.96645e-22)
(0.128237 -0.022765 0)
(0.140749 -0.0200895 -1.29206e-21)
(0.152135 -0.01713 0)
(0.162225 -0.0139197 -1.04332e-21)
(0.170852 -0.0105039 -3.46381e-22)
(0.177858 -0.00693965 -4.66264e-23)
(0.183101 -0.00329545 -2.37835e-22)
(0.186462 0.000348779 7.00219e-22)
(0.187841 0.00390218 0)
(0.187184 0.00727187 0)
(0.184489 0.0103686 -1.12949e-21)
(0.179804 0.013109 -1.88382e-21)
(0.173232 0.0154199 0)
(0.164938 0.0172434 7.24685e-22)
(0.155141 0.0185422 0)
(0.144113 0.0193027 -2.42133e-21)
(0.132163 0.0195375 1.26579e-23)
(0.119626 0.0192837 -9.89529e-25)
(0.106843 0.0186005 1.66973e-21)
(0.0941394 0.0175633 0)
(0.0818119 0.0162572 -1.64252e-21)
(0.0701093 0.014769 -2.88738e-23)
(0.059225 0.0131816 0)
(0.0492926 0.0115684 0)
(0.040387 0.00999133 0)
(0.0325292 0.00850001 1.5118e-21)
(0.0256937 0.00713259 0)
(0.019817 0.00591695 0)
(0.0148066 0.00487151 0)
(0.0105499 0.00400544 0)
(0.00692364 0.00331856 0)
(0.00380223 0.00280151 1.25815e-21)
(0.00106649 0.00243663 0)
(-0.00138955 0.00219979 1.21579e-21)
(-0.00365441 0.00206275 1.18585e-21)
(-0.00579517 0.00199642 -1.16011e-21)
(-0.00785793 0.00197371 0)