/*--------------------------------*- C++ -*----------------------------------*\
  =========                 |
  \\      /  F ield         | OpenFOAM: The Open Source CFD Toolbox
   \\    /   O peration     | Website:  https://openfoam.org
    \\  /    A nd           | Version:  8
     \\/     M anipulation  |
\*---------------------------------------------------------------------------*/
FoamFile
{
    version     2.0;
    format      ascii;
    class       volScalarField;
    location    "0.18";
    object      p;
}
// * * * * * * * * * * * * * * * * * * * * * * * * * * * * * * * * * * * * * //

dimensions      [0 2 -2 0 0 0 0];

internalField   nonuniform List<scalar> 
12225
(
-0.452168
-0.919593
-0.94708
-0.931133
-0.935338
-0.939153
-0.940406
-0.940953
-0.941243
-0.941323
-0.941281
-0.941197
-0.94113
-0.941131
-0.941247
-0.941652
-0.942278
-0.947418
-0.533036
-0.908589
-0.94159
-0.928452
-0.93366
-0.938072
-0.939562
-0.940281
-0.940712
-0.940898
-0.940939
-0.940927
-0.940924
-0.940987
-0.941167
-0.941622
-0.942281
-0.945108
-0.610987
-0.891386
-0.933963
-0.925314
-0.931479
-0.936678
-0.938503
-0.939425
-0.940029
-0.940348
-0.940492
-0.940565
-0.940637
-0.940765
-0.940997
-0.941451
-0.941868
-0.942606
-0.670069
-0.873993
-0.925556
-0.922447
-0.929056
-0.935045
-0.937323
-0.938458
-0.939239
-0.939699
-0.939948
-0.940103
-0.940237
-0.940405
-0.94063
-0.940954
-0.940942
-0.940368
-0.716939
-0.861981
-0.916957
-0.919535
-0.926325
-0.932987
-0.935851
-0.937249
-0.938222
-0.938842
-0.939205
-0.939439
-0.939622
-0.939797
-0.939955
-0.940052
-0.939564
-0.938189
-0.756211
-0.856558
-0.90898
-0.916437
-0.923334
-0.93041
-0.933921
-0.935651
-0.93684
-0.93764
-0.938131
-0.938446
-0.938665
-0.938817
-0.938862
-0.938691
-0.937786
-0.93594
-0.789123
-0.856371
-0.90239
-0.91337
-0.920331
-0.927442
-0.93151
-0.933602
-0.935009
-0.935991
-0.936619
-0.937013
-0.937255
-0.937361
-0.937269
-0.936844
-0.935633
-0.93357
-0.816373
-0.859819
-0.897648
-0.910599
-0.917582
-0.924361
-0.928752
-0.931161
-0.932752
-0.933885
-0.934632
-0.935091
-0.935338
-0.935383
-0.935155
-0.934525
-0.93314
-0.93104
-0.838805
-0.865601
-0.89486
-0.9083
-0.915243
-0.921448
-0.925876
-0.928488
-0.930196
-0.931417
-0.932236
-0.932728
-0.932957
-0.93293
-0.932585
-0.931812
-0.930372
-0.928348
-0.85726
-0.872657
-0.893857
-0.906564
-0.913352
-0.918883
-0.923097
-0.92577
-0.927516
-0.928751
-0.929582
-0.930063
-0.930248
-0.930143
-0.929701
-0.928846
-0.927437
-0.925551
-0.872485
-0.880176
-0.894318
-0.905424
-0.911881
-0.916731
-0.920554
-0.923149
-0.924862
-0.92605
-0.926837
-0.92727
-0.927388
-0.927203
-0.926688
-0.925797
-0.924467
-0.922746
-0.884061
-0.887031
-0.895754
-0.904904
-0.910868
-0.915117
-0.918478
-0.920888
-0.922512
-0.923616
-0.924326
-0.92469
-0.924739
-0.924489
-0.923928
-0.923036
-0.9218
-0.920248
-0.893726
-0.89349
-0.89777
-0.904779
-0.910116
-0.913802
-0.916669
-0.918829
-0.92033
-0.921332
-0.921951
-0.922236
-0.922216
-0.921908
-0.921316
-0.920438
-0.919294
-0.917892
-0.902821
-0.900154
-0.900505
-0.90508
-0.909527
-0.912599
-0.914898
-0.916704
-0.918014
-0.918878
-0.919377
-0.919562
-0.919463
-0.919098
-0.918482
-0.917629
-0.916579
-0.915332
-0.911013
-0.906578
-0.903728
-0.905826
-0.909137
-0.911535
-0.913225
-0.914586
-0.915628
-0.916311
-0.916664
-0.916732
-0.916545
-0.916125
-0.915492
-0.91467
-0.913704
-0.912598
-0.917883
-0.912229
-0.906979
-0.90685
-0.908908
-0.910584
-0.911669
-0.912541
-0.913252
-0.913712
-0.913895
-0.913829
-0.913544
-0.913062
-0.912405
-0.9116
-0.910688
-0.909678
-0.922876
-0.916445
-0.909586
-0.90774
-0.908661
-0.909652
-0.910191
-0.910593
-0.910954
-0.911166
-0.911161
-0.910943
-0.910542
-0.909979
-0.909273
-0.908449
-0.907542
-0.906562
-0.925124
-0.918301
-0.910617
-0.907811
-0.90802
-0.908539
-0.908689
-0.90874
-0.908808
-0.908791
-0.908597
-0.908218
-0.907679
-0.907001
-0.906203
-0.905303
-0.904331
-0.903298
-0.923072
-0.916311
-0.90877
-0.906106
-0.906388
-0.906894
-0.906971
-0.906918
-0.906863
-0.906705
-0.906359
-0.905824
-0.905129
-0.904299
-0.903353
-0.902309
-0.901193
-0.900023
-0.915452
-0.90949
-0.903585
-0.902674
-0.904099
-0.905179
-0.905599
-0.905785
-0.905841
-0.905671
-0.905235
-0.90457
-0.903719
-0.902714
-0.901579
-0.900339
-0.89902
-0.897646
-0.90494
-0.900412
-0.897407
-0.899271
-0.902244
-0.90405
-0.904969
-0.905523
-0.905749
-0.905584
-0.905067
-0.904278
-0.903273
-0.902089
-0.900761
-0.899322
-0.897801
-0.896229
-0.890783
-0.888992
-0.890923
-0.896599
-0.901169
-0.903662
-0.905161
-0.906108
-0.906447
-0.906223
-0.905582
-0.904631
-0.903432
-0.902032
-0.900478
-0.898807
-0.897055
-0.895251
-0.872418
-0.875746
-0.885402
-0.895431
-0.901115
-0.904163
-0.906277
-0.907513
-0.907812
-0.907427
-0.906595
-0.905427
-0.903987
-0.902335
-0.900529
-0.898608
-0.896612
-0.894548
-0.848762
-0.861554
-0.882401
-0.896308
-0.902167
-0.905661
-0.908308
-0.909583
-0.909648
-0.909008
-0.907929
-0.906502
-0.904798
-0.902892
-0.900845
-0.898693
-0.896481
-0.894183
-0.818301
-0.847936
-0.883294
-0.899204
-0.904243
-0.908148
-0.911061
-0.912052
-0.91174
-0.910795
-0.909436
-0.907735
-0.905777
-0.903644
-0.901394
-0.899059
-0.896684
-0.894221
-0.779496
-0.837795
-0.888803
-0.903417
-0.907153
-0.911443
-0.914151
-0.914569
-0.913821
-0.912556
-0.910909
-0.908951
-0.90678
-0.904469
-0.902069
-0.899608
-0.897126
-0.894574
-0.730486
-0.836228
-0.899121
-0.908155
-0.910605
-0.914979
-0.916997
-0.91675
-0.91561
-0.914054
-0.912158
-0.910002
-0.907679
-0.90525
-0.902755
-0.900219
-0.897676
-0.895088
-0.665
-0.846357
-0.912999
-0.913055
-0.914251
-0.918139
-0.919268
-0.918476
-0.917038
-0.915257
-0.913184
-0.910901
-0.908484
-0.905982
-0.903429
-0.900848
-0.898269
-0.895667
-0.57219
-0.861046
-0.926642
-0.918193
-0.91787
-0.920672
-0.921031
-0.919902
-0.91826
-0.91631
-0.914111
-0.911736
-0.909249
-0.906692
-0.904096
-0.901482
-0.898876
-0.896266
-0.472801
-0.869271
-0.935844
-0.922289
-0.920518
-0.922348
-0.922281
-0.920969
-0.919177
-0.917105
-0.914818
-0.912378
-0.909841
-0.907245
-0.904618
-0.90198
-0.899354
-0.896737
-0.896395
-0.896399
-0.896558
-0.896889
-0.897363
-0.897961
-0.898677
-0.899512
-0.900468
-0.901552
-0.902768
-0.904118
-0.905606
-0.90723
-0.908986
-0.910868
-0.912868
-0.914973
-0.917166
-0.919427
-0.921731
-0.924045
-0.926331
-0.928545
-0.930632
-0.932531
-0.934171
-0.935475
-0.936355
-0.936719
-0.936468
-0.935499
-0.933709
-0.930996
-0.927262
-0.922418
-0.916385
-0.909099
-0.900516
-0.890611
-0.879386
-0.866865
-0.853102
-0.838172
-0.822176
-0.805241
-0.787522
-0.769192
-0.750439
-0.731455
-0.712439
-0.693581
-0.675062
-0.65705
-0.63969
-0.623107
-0.607401
-0.592645
-0.57889
-0.566162
-0.554465
-0.543786
-0.534094
-0.525346
-0.517491
-0.510469
-0.50422
-0.498677
-0.493776
-0.489452
-0.485638
-0.482273
-0.479299
-0.476663
-0.474315
-0.47221
-0.470306
-0.468568
-0.466963
-0.465461
-0.464037
-0.462668
-0.461334
-0.460017
-0.458704
-0.457379
-0.456032
-0.454654
-0.453234
-0.451767
-0.450245
-0.448664
-0.44702
-0.445308
-0.443527
-0.441675
-0.439749
-0.437749
-0.435674
-0.433525
-0.4313
-0.429001
-0.426629
-0.424183
-0.421665
-0.419077
-0.416419
-0.413694
-0.410902
-0.408045
-0.405126
-0.402146
-0.399107
-0.396011
-0.392858
-0.389652
-0.386394
-0.383085
-0.379727
-0.376321
-0.372868
-0.369371
-0.365829
-0.362245
-0.358618
-0.354951
-0.351244
-0.347497
-0.343712
-0.339889
-0.336029
-0.332133
-0.3282
-0.324232
-0.320228
-0.316189
-0.312116
-0.308008
-0.303865
-0.299688
-0.295476
-0.29123
-0.28695
-0.282635
-0.278285
-0.273901
-0.269482
-0.265027
-0.260538
-0.256013
-0.251453
-0.246857
-0.242224
-0.237556
-0.23285
-0.228107
-0.223327
-0.218509
-0.213652
-0.208757
-0.203821
-0.198846
-0.19383
-0.188773
-0.183673
-0.178529
-0.173341
-0.168108
-0.162827
-0.157497
-0.152115
-0.14668
-0.141188
-0.135636
-0.130019
-0.124333
-0.118567
-0.112738
-0.106711
-0.101164
-0.895733
-0.895826
-0.896033
-0.896359
-0.896797
-0.897343
-0.897999
-0.898769
-0.89966
-0.900678
-0.901826
-0.903107
-0.904524
-0.906073
-0.907752
-0.909555
-0.911475
-0.913501
-0.915619
-0.917811
-0.920056
-0.922324
-0.924583
-0.926792
-0.928901
-0.930854
-0.932586
-0.93402
-0.935072
-0.935651
-0.935656
-0.934982
-0.93352
-0.931161
-0.927797
-0.92333
-0.917669
-0.910741
-0.90249
-0.892883
-0.881913
-0.869595
-0.855966
-0.841097
-0.825105
-0.808132
-0.790336
-0.771896
-0.753007
-0.73387
-0.714688
-0.695658
-0.676969
-0.658792
-0.641276
-0.624549
-0.608711
-0.593837
-0.579977
-0.567156
-0.555378
-0.544629
-0.534876
-0.526073
-0.518166
-0.511099
-0.504811
-0.499233
-0.494297
-0.489937
-0.486088
-0.482689
-0.479681
-0.477011
-0.47463
-0.472493
-0.470559
-0.468793
-0.46716
-0.465633
-0.464186
-0.462795
-0.461442
-0.460108
-0.458778
-0.457439
-0.45608
-0.45469
-0.453261
-0.451785
-0.450256
-0.448669
-0.447019
-0.445303
-0.443518
-0.441662
-0.439734
-0.437732
-0.435656
-0.433506
-0.431281
-0.428982
-0.426609
-0.424164
-0.421646
-0.419058
-0.416401
-0.413676
-0.410885
-0.408029
-0.405111
-0.402132
-0.399093
-0.395997
-0.392846
-0.38964
-0.386383
-0.383074
-0.379717
-0.376311
-0.372859
-0.369362
-0.365821
-0.362237
-0.358611
-0.354944
-0.351237
-0.347491
-0.343707
-0.339884
-0.336024
-0.332128
-0.328196
-0.324228
-0.320224
-0.316186
-0.312112
-0.308004
-0.303862
-0.299685
-0.295473
-0.291227
-0.286947
-0.282632
-0.278283
-0.273898
-0.269479
-0.265025
-0.260536
-0.256011
-0.251451
-0.246855
-0.242222
-0.237554
-0.232848
-0.228105
-0.223325
-0.218507
-0.21365
-0.208754
-0.203819
-0.198843
-0.193827
-0.188769
-0.183669
-0.178525
-0.173336
-0.168102
-0.16282
-0.157488
-0.152105
-0.146667
-0.141172
-0.135616
-0.129994
-0.124302
-0.118526
-0.112687
-0.106639
-0.101102
-0.894476
-0.8947
-0.895009
-0.895374
-0.895805
-0.896317
-0.896925
-0.897642
-0.898477
-0.899441
-0.90054
-0.901778
-0.903158
-0.904679
-0.906342
-0.908143
-0.910079
-0.912145
-0.91433
-0.916622
-0.919005
-0.921455
-0.923944
-0.926433
-0.928877
-0.931217
-0.933386
-0.935305
-0.936883
-0.938017
-0.938596
-0.938502
-0.937613
-0.935803
-0.932951
-0.928944
-0.923679
-0.917072
-0.909059
-0.8996
-0.888678
-0.876303
-0.862533
-0.847462
-0.831207
-0.813911
-0.795745
-0.776899
-0.757579
-0.737999
-0.718375
-0.698915
-0.679817
-0.661258
-0.643396
-0.62636
-0.610252
-0.595148
-0.581096
-0.568119
-0.556217
-0.545372
-0.535537
-0.526666
-0.518711
-0.511608
-0.505291
-0.499689
-0.494732
-0.490353
-0.486486
-0.483068
-0.480042
-0.477353
-0.474953
-0.472797
-0.470844
-0.469058
-0.467406
-0.46586
-0.464394
-0.462986
-0.461615
-0.460265
-0.45892
-0.457567
-0.456194
-0.454792
-0.453352
-0.451866
-0.450327
-0.448732
-0.447075
-0.445352
-0.443561
-0.4417
-0.439766
-0.43776
-0.43568
-0.433527
-0.431299
-0.428997
-0.426622
-0.424174
-0.421655
-0.419065
-0.416407
-0.41368
-0.410888
-0.408032
-0.405112
-0.402132
-0.399093
-0.395997
-0.392845
-0.389639
-0.386381
-0.383072
-0.379714
-0.376309
-0.372857
-0.369359
-0.365818
-0.362234
-0.358608
-0.354941
-0.351234
-0.347488
-0.343704
-0.339881
-0.336021
-0.332125
-0.328193
-0.324225
-0.320221
-0.316183
-0.31211
-0.308002
-0.303859
-0.299683
-0.295471
-0.291225
-0.286945
-0.28263
-0.278281
-0.273897
-0.269478
-0.265024
-0.260534
-0.25601
-0.251449
-0.246853
-0.242221
-0.237552
-0.232847
-0.228104
-0.223324
-0.218505
-0.213648
-0.208753
-0.203817
-0.198842
-0.193825
-0.188767
-0.183666
-0.178522
-0.173333
-0.168098
-0.162815
-0.157483
-0.152098
-0.146659
-0.141162
-0.135604
-0.129978
-0.124282
-0.118499
-0.11266
-0.106598
-0.101133
-0.892965
-0.893322
-0.893736
-0.894144
-0.894576
-0.895071
-0.895652
-0.896341
-0.897155
-0.898107
-0.899207
-0.900465
-0.901886
-0.903476
-0.905239
-0.907179
-0.909299
-0.911598
-0.914073
-0.916717
-0.919517
-0.922453
-0.925494
-0.928602
-0.931724
-0.934794
-0.937735
-0.940453
-0.942841
-0.94478
-0.946143
-0.946793
-0.94659
-0.945396
-0.943075
-0.939503
-0.934569
-0.928182
-0.920272
-0.910797
-0.899743
-0.887135
-0.873041
-0.857552
-0.840792
-0.822918
-0.804116
-0.784591
-0.764566
-0.744273
-0.723944
-0.703804
-0.684063
-0.66491
-0.646509
-0.628996
-0.612474
-0.597019
-0.582675
-0.569462
-0.557373
-0.54637
-0.536408
-0.527448
-0.519427
-0.512277
-0.505924
-0.500295
-0.495318
-0.490922
-0.487038
-0.483605
-0.480563
-0.477857
-0.475439
-0.473263
-0.47129
-0.469483
-0.467809
-0.466241
-0.464753
-0.463323
-0.461931
-0.46056
-0.459195
-0.457823
-0.456432
-0.455012
-0.453555
-0.452053
-0.4505
-0.448891
-0.44722
-0.445485
-0.443683
-0.441811
-0.439868
-0.437853
-0.435765
-0.433604
-0.431368
-0.42906
-0.426679
-0.424226
-0.421701
-0.419107
-0.416444
-0.413714
-0.410918
-0.408058
-0.405135
-0.402153
-0.399111
-0.396012
-0.392858
-0.38965
-0.386391
-0.38308
-0.379721
-0.376314
-0.372861
-0.369363
-0.365821
-0.362237
-0.35861
-0.354943
-0.351235
-0.347489
-0.343704
-0.339881
-0.336021
-0.332125
-0.328192
-0.324224
-0.320221
-0.316182
-0.312109
-0.308001
-0.303858
-0.299682
-0.29547
-0.291225
-0.286944
-0.28263
-0.27828
-0.273896
-0.269477
-0.265023
-0.260534
-0.256009
-0.251449
-0.246853
-0.242221
-0.237552
-0.232847
-0.228104
-0.223324
-0.218505
-0.213649
-0.208753
-0.203818
-0.198842
-0.193826
-0.188768
-0.183668
-0.178524
-0.173335
-0.1681
-0.162818
-0.157486
-0.152102
-0.146664
-0.141168
-0.13561
-0.129986
-0.124293
-0.118514
-0.112691
-0.106654
-0.101254
-0.891655
-0.892114
-0.892605
-0.893041
-0.893478
-0.893968
-0.894549
-0.895247
-0.896086
-0.897083
-0.898254
-0.899613
-0.901172
-0.902944
-0.904939
-0.907169
-0.909641
-0.912361
-0.915331
-0.918545
-0.921991
-0.925646
-0.929475
-0.93343
-0.937448
-0.941452
-0.945348
-0.949026
-0.952362
-0.955223
-0.957462
-0.958928
-0.959467
-0.958927
-0.957164
-0.954041
-0.949441
-0.943265
-0.935436
-0.925913
-0.914686
-0.901783
-0.887266
-0.871233
-0.853821
-0.8352
-0.815573
-0.795164
-0.77422
-0.752994
-0.73174
-0.710704
-0.690114
-0.670175
-0.65106
-0.632912
-0.615837
-0.59991
-0.585172
-0.571636
-0.559273
-0.548047
-0.537919
-0.52883
-0.520709
-0.51348
-0.507066
-0.501387
-0.496367
-0.491932
-0.488013
-0.484545
-0.481468
-0.478727
-0.476273
-0.47406
-0.472049
-0.470204
-0.468492
-0.466887
-0.465361
-0.463894
-0.462466
-0.461061
-0.459662
-0.458258
-0.456836
-0.455387
-0.453903
-0.452375
-0.450798
-0.449165
-0.447472
-0.445716
-0.443895
-0.442005
-0.440045
-0.438015
-0.435912
-0.433737
-0.431489
-0.429169
-0.426778
-0.424315
-0.421781
-0.419179
-0.416508
-0.413771
-0.410969
-0.408103
-0.405176
-0.402188
-0.399142
-0.396039
-0.392882
-0.389671
-0.386409
-0.383096
-0.379735
-0.376326
-0.372871
-0.369371
-0.365828
-0.362242
-0.358614
-0.354946
-0.351238
-0.347491
-0.343705
-0.339882
-0.336022
-0.332125
-0.328192
-0.324224
-0.32022
-0.316182
-0.312108
-0.308
-0.303858
-0.299681
-0.29547
-0.291224
-0.286944
-0.282629
-0.27828
-0.273896
-0.269477
-0.265023
-0.260534
-0.256009
-0.251449
-0.246853
-0.242221
-0.237553
-0.232847
-0.228105
-0.223325
-0.218507
-0.21365
-0.208755
-0.20382
-0.198845
-0.19383
-0.188773
-0.183673
-0.17853
-0.173343
-0.16811
-0.162829
-0.157499
-0.152118
-0.146683
-0.141192
-0.13564
-0.130024
-0.124342
-0.118581
-0.112787
-0.106809
-0.101449
-0.890921
-0.891437
-0.891971
-0.892425
-0.892872
-0.893381
-0.893994
-0.894746
-0.895664
-0.89677
-0.898086
-0.899632
-0.901425
-0.903486
-0.905832
-0.908479
-0.911442
-0.914729
-0.918344
-0.922281
-0.926523
-0.931044
-0.9358
-0.940734
-0.945773
-0.950823
-0.955779
-0.960515
-0.964893
-0.968763
-0.971965
-0.974333
-0.975698
-0.975896
-0.974768
-0.972167
-0.967964
-0.962048
-0.954337
-0.944786
-0.933378
-0.920138
-0.90513
-0.888459
-0.870271
-0.850754
-0.830129
-0.808645
-0.786576
-0.764202
-0.741807
-0.719664
-0.698025
-0.677112
-0.657113
-0.638178
-0.620419
-0.603908
-0.58868
-0.574725
-0.562016
-0.550517
-0.540172
-0.53091
-0.52265
-0.515309
-0.508802
-0.503044
-0.497954
-0.493456
-0.489477
-0.48595
-0.482815
-0.480016
-0.477504
-0.475233
-0.473164
-0.471261
-0.469492
-0.46783
-0.466249
-0.464728
-0.463248
-0.461792
-0.460345
-0.458894
-0.457428
-0.455937
-0.454413
-0.452847
-0.451233
-0.449566
-0.447842
-0.446056
-0.444206
-0.442289
-0.440305
-0.438251
-0.436127
-0.433932
-0.431665
-0.429328
-0.426921
-0.424444
-0.421897
-0.419282
-0.4166
-0.413853
-0.411042
-0.408167
-0.405232
-0.402238
-0.399186
-0.396078
-0.392915
-0.3897
-0.386434
-0.383117
-0.379753
-0.376341
-0.372884
-0.369382
-0.365837
-0.36225
-0.358621
-0.354951
-0.351242
-0.347494
-0.343707
-0.339884
-0.336023
-0.332126
-0.328193
-0.324224
-0.32022
-0.316182
-0.312108
-0.308
-0.303858
-0.299681
-0.29547
-0.291224
-0.286944
-0.282629
-0.27828
-0.273896
-0.269477
-0.265023
-0.260534
-0.25601
-0.25145
-0.246854
-0.242222
-0.237554
-0.232849
-0.228107
-0.223327
-0.21851
-0.213654
-0.208759
-0.203825
-0.198851
-0.193836
-0.18878
-0.183682
-0.178541
-0.173356
-0.168126
-0.162848
-0.157523
-0.152147
-0.146719
-0.141235
-0.135695
-0.130093
-0.124431
-0.1187
-0.112947
-0.107046
-0.101707
-0.891013
-0.891543
-0.892085
-0.892549
-0.893018
-0.893567
-0.894247
-0.895095
-0.89614
-0.897412
-0.898934
-0.900733
-0.902834
-0.905262
-0.908041
-0.911191
-0.914731
-0.918671
-0.923016
-0.927757
-0.932876
-0.938339
-0.944097
-0.950084
-0.956216
-0.96239
-0.968486
-0.974367
-0.97988
-0.98486
-0.989131
-0.99251
-0.994813
-0.995858
-0.995471
-0.993491
-0.98977
-0.984187
-0.976653
-0.96711
-0.955534
-0.941945
-0.926408
-0.909032
-0.889974
-0.869437
-0.847663
-0.824931
-0.801544
-0.777821
-0.75408
-0.730627
-0.707743
-0.685675
-0.664629
-0.644765
-0.626199
-0.608999
-0.593177
-0.578721
-0.565606
-0.55378
-0.543169
-0.533691
-0.525255
-0.517768
-0.511136
-0.505269
-0.500082
-0.495493
-0.491427
-0.487817
-0.484601
-0.481721
-0.479129
-0.476778
-0.47463
-0.47265
-0.470805
-0.469068
-0.467414
-0.465823
-0.464275
-0.462753
-0.461243
-0.459732
-0.458209
-0.456663
-0.455086
-0.453471
-0.45181
-0.450099
-0.448333
-0.446508
-0.44462
-0.442669
-0.440651
-0.438567
-0.436414
-0.434192
-0.431901
-0.429541
-0.427113
-0.424616
-0.422051
-0.41942
-0.416723
-0.413962
-0.411138
-0.408253
-0.405308
-0.402304
-0.399244
-0.396128
-0.392959
-0.389738
-0.386467
-0.383146
-0.379777
-0.376362
-0.372902
-0.369397
-0.365849
-0.36226
-0.358629
-0.354958
-0.351247
-0.347498
-0.343711
-0.339886
-0.336025
-0.332127
-0.328193
-0.324224
-0.32022
-0.316181
-0.312108
-0.308
-0.303857
-0.299681
-0.295469
-0.291224
-0.286944
-0.282629
-0.27828
-0.273896
-0.269478
-0.265024
-0.260535
-0.256011
-0.251451
-0.246856
-0.242224
-0.237556
-0.232851
-0.22811
-0.22333
-0.218513
-0.213658
-0.208764
-0.203831
-0.198858
-0.193845
-0.188791
-0.183695
-0.178557
-0.173375
-0.168148
-0.162876
-0.157556
-0.152188
-0.146769
-0.141298
-0.135772
-0.130191
-0.124557
-0.118864
-0.11316
-0.107345
-0.102018
-0.892019
-0.89252
-0.893042
-0.893508
-0.894008
-0.894618
-0.895391
-0.896365
-0.897573
-0.899046
-0.900815
-0.902909
-0.905359
-0.908195
-0.911447
-0.915139
-0.919292
-0.92392
-0.929026
-0.934603
-0.940629
-0.947068
-0.953864
-0.960947
-0.968222
-0.975579
-0.982885
-0.98999
-0.996726
-1.00291
-1.00835
-1.01284
-1.01618
-1.01817
-1.01862
-1.01735
-1.01419
-1.00901
-1.00172
-0.992234
-0.980526
-0.966609
-0.950543
-0.932439
-0.912462
-0.890827
-0.867799
-0.843688
-0.818833
-0.793594
-0.768332
-0.743393
-0.719097
-0.695719
-0.673486
-0.652573
-0.633095
-0.615096
-0.598592
-0.583578
-0.570004
-0.5578
-0.546881
-0.537149
-0.528501
-0.520834
-0.514047
-0.508042
-0.502729
-0.498022
-0.493844
-0.490126
-0.486803
-0.483819
-0.481124
-0.478673
-0.476426
-0.474348
-0.472409
-0.47058
-0.468837
-0.46716
-0.465529
-0.463928
-0.462342
-0.460759
-0.459166
-0.457554
-0.455915
-0.45424
-0.452523
-0.450758
-0.448941
-0.447068
-0.445136
-0.443142
-0.441084
-0.438962
-0.436774
-0.434519
-0.432198
-0.429809
-0.427354
-0.424833
-0.422246
-0.419595
-0.416879
-0.414101
-0.411261
-0.408362
-0.405404
-0.402389
-0.399318
-0.396193
-0.393016
-0.389787
-0.386509
-0.383182
-0.379808
-0.376389
-0.372924
-0.369416
-0.365865
-0.362273
-0.35864
-0.354967
-0.351254
-0.347503
-0.343715
-0.339889
-0.336027
-0.332129
-0.328195
-0.324225
-0.320221
-0.316182
-0.312108
-0.308
-0.303857
-0.299681
-0.295469
-0.291224
-0.286944
-0.28263
-0.27828
-0.273897
-0.269478
-0.265025
-0.260536
-0.256012
-0.251453
-0.246857
-0.242226
-0.237558
-0.232854
-0.228113
-0.223334
-0.218518
-0.213664
-0.208771
-0.203839
-0.198868
-0.193857
-0.188805
-0.183711
-0.178576
-0.173398
-0.168176
-0.16291
-0.157598
-0.152239
-0.146832
-0.141376
-0.13587
-0.130313
-0.124711
-0.119063
-0.113413
-0.107687
-0.102369
-0.893862
-0.894299
-0.894774
-0.895236
-0.895771
-0.896452
-0.897332
-0.898449
-0.899837
-0.90153
-0.903561
-0.905964
-0.908774
-0.912027
-0.915756
-0.91999
-0.924755
-0.930066
-0.935929
-0.942337
-0.949268
-0.956684
-0.964527
-0.97272
-0.981162
-0.989732
-0.998286
-1.00666
-1.01467
-1.02211
-1.02877
-1.03443
-1.03886
-1.04185
-1.04319
-1.04267
-1.04013
-1.03541
-1.02841
-1.01904
-1.00727
-0.993085
-0.976547
-0.95776
-0.936888
-0.914155
-0.889847
-0.8643
-0.837894
-0.811037
-0.784138
-0.757594
-0.731769
-0.706976
-0.683465
-0.66141
-0.640919
-0.622055
-0.604827
-0.589207
-0.575132
-0.562516
-0.551255
-0.541238
-0.532349
-0.524474
-0.517503
-0.511333
-0.505866
-0.501015
-0.496699
-0.492847
-0.489394
-0.486283
-0.483463
-0.48089
-0.478525
-0.476331
-0.47428
-0.472342
-0.470495
-0.468718
-0.466991
-0.465297
-0.463624
-0.461956
-0.460284
-0.458596
-0.456885
-0.455142
-0.45336
-0.451533
-0.449658
-0.44773
-0.445745
-0.443702
-0.441598
-0.439433
-0.437204
-0.434911
-0.432554
-0.430132
-0.427646
-0.425096
-0.422483
-0.419807
-0.417069
-0.41427
-0.411412
-0.408496
-0.405522
-0.402493
-0.39941
-0.396274
-0.393086
-0.389849
-0.386562
-0.383228
-0.379848
-0.376423
-0.372953
-0.369441
-0.365886
-0.36229
-0.358654
-0.354979
-0.351264
-0.347511
-0.343721
-0.339894
-0.336031
-0.332132
-0.328197
-0.324227
-0.320222
-0.316183
-0.312109
-0.308
-0.303858
-0.299681
-0.29547
-0.291224
-0.286944
-0.28263
-0.278281
-0.273897
-0.269479
-0.265026
-0.260537
-0.256013
-0.251454
-0.246859
-0.242228
-0.237561
-0.232858
-0.228117
-0.223339
-0.218524
-0.213671
-0.208779
-0.203848
-0.198879
-0.19387
-0.18882
-0.18373
-0.178599
-0.173425
-0.168209
-0.16295
-0.157647
-0.152299
-0.146905
-0.141466
-0.135982
-0.130454
-0.124887
-0.119286
-0.113692
-0.108051
-0.102746
-0.896339
-0.896685
-0.897091
-0.897538
-0.898103
-0.898855
-0.899843
-0.901104
-0.902672
-0.904582
-0.90687
-0.909572
-0.912729
-0.91638
-0.920562
-0.925312
-0.930656
-0.936615
-0.943198
-0.950399
-0.958199
-0.966558
-0.975416
-0.98469
-0.994273
-1.00403
-1.01382
-1.02344
-1.0327
-1.04137
-1.04923
-1.05604
-1.06154
-1.0655
-1.06771
-1.06795
-1.06602
-1.06179
-1.05513
-1.04596
-1.03421
-1.01988
-1.003
-0.983656
-0.962009
-0.93828
-0.912765
-0.885825
-0.857884
-0.829401
-0.800845
-0.772667
-0.745285
-0.719044
-0.694204
-0.670961
-0.649439
-0.62969
-0.611717
-0.595475
-0.580883
-0.567836
-0.556215
-0.545893
-0.536742
-0.528637
-0.52146
-0.515099
-0.509455
-0.504435
-0.499956
-0.495947
-0.492341
-0.489081
-0.486116
-0.483402
-0.480899
-0.478572
-0.476392
-0.474331
-0.472365
-0.470474
-0.468638
-0.466841
-0.465068
-0.463307
-0.461546
-0.459773
-0.457982
-0.456162
-0.454308
-0.452413
-0.450473
-0.448483
-0.446441
-0.444343
-0.442188
-0.439974
-0.437699
-0.435363
-0.432966
-0.430507
-0.427986
-0.425404
-0.42276
-0.420056
-0.417293
-0.414471
-0.411591
-0.408655
-0.405664
-0.402618
-0.39952
-0.396371
-0.393172
-0.389923
-0.386627
-0.383285
-0.379897
-0.376465
-0.372989
-0.369472
-0.365912
-0.362313
-0.358673
-0.354994
-0.351277
-0.347522
-0.34373
-0.339902
-0.336037
-0.332136
-0.328201
-0.32423
-0.320224
-0.316185
-0.31211
-0.308002
-0.303859
-0.299682
-0.29547
-0.291225
-0.286945
-0.282631
-0.278282
-0.273898
-0.26948
-0.265027
-0.260539
-0.256015
-0.251456
-0.246862
-0.242231
-0.237565
-0.232861
-0.228122
-0.223344
-0.21853
-0.213678
-0.208788
-0.203859
-0.198891
-0.193884
-0.188837
-0.183751
-0.178624
-0.173455
-0.168246
-0.162994
-0.1577
-0.152364
-0.146985
-0.141565
-0.136104
-0.130606
-0.125077
-0.119523
-0.113984
-0.108424
-0.103136
-0.899173
-0.899409
-0.899727
-0.900142
-0.900725
-0.901535
-0.902618
-0.904009
-0.905741
-0.907849
-0.910369
-0.913341
-0.916808
-0.920814
-0.925402
-0.930611
-0.936473
-0.943015
-0.950247
-0.958168
-0.966758
-0.975979
-0.985767
-0.996035
-1.00667
-1.01753
-1.02844
-1.0392
-1.0496
-1.0594
-1.06835
-1.07617
-1.08263
-1.08747
-1.09045
-1.09137
-1.09002
-1.08628
-1.08
-1.0711
-1.05951
-1.04519
-1.02815
-1.00846
-0.986253
-0.96173
-0.935192
-0.907026
-0.877684
-0.8477
-0.817596
-0.787881
-0.759008
-0.731362
-0.705241
-0.680855
-0.658336
-0.637737
-0.619047
-0.602204
-0.587109
-0.573641
-0.561661
-0.551031
-0.541608
-0.533259
-0.525858
-0.519289
-0.513447
-0.508237
-0.503576
-0.499388
-0.495608
-0.49218
-0.489051
-0.486177
-0.48352
-0.481044
-0.478721
-0.476522
-0.474424
-0.472407
-0.470451
-0.46854
-0.466659
-0.464795
-0.462936
-0.461071
-0.459192
-0.457289
-0.455356
-0.453387
-0.451376
-0.44932
-0.447214
-0.445057
-0.442845
-0.440578
-0.438254
-0.435871
-0.43343
-0.43093
-0.428371
-0.425752
-0.423076
-0.420341
-0.417549
-0.414701
-0.411797
-0.408839
-0.405828
-0.402764
-0.399649
-0.396485
-0.393272
-0.390012
-0.386705
-0.383352
-0.379956
-0.376516
-0.373034
-0.36951
-0.365945
-0.36234
-0.358697
-0.355014
-0.351294
-0.347536
-0.343742
-0.339911
-0.336045
-0.332143
-0.328206
-0.324234
-0.320228
-0.316187
-0.312113
-0.308004
-0.30386
-0.299683
-0.295472
-0.291226
-0.286946
-0.282632
-0.278283
-0.2739
-0.269482
-0.265029
-0.260541
-0.256017
-0.251459
-0.246864
-0.242234
-0.237568
-0.232866
-0.228126
-0.22335
-0.218537
-0.213686
-0.208797
-0.20387
-0.198904
-0.193899
-0.188856
-0.183773
-0.17865
-0.173487
-0.168284
-0.163041
-0.157757
-0.152433
-0.14707
-0.141669
-0.136233
-0.130764
-0.125273
-0.119766
-0.114279
-0.108792
-0.103528
-0.902064
-0.90218
-0.902394
-0.902759
-0.903338
-0.904181
-0.905331
-0.906822
-0.908685
-0.910952
-0.913662
-0.916855
-0.920576
-0.924874
-0.929795
-0.935382
-0.941673
-0.948698
-0.956472
-0.964996
-0.974251
-0.984199
-0.994774
-1.00588
-1.0174
-1.02918
-1.04104
-1.05276
-1.0641
-1.07482
-1.08465
-1.0933
-1.10052
-1.10606
-1.10967
-1.11114
-1.11029
-1.107
-1.10114
-1.09259
-1.08128
-1.06715
-1.05018
-1.0304
-1.00791
-0.982885
-0.955629
-0.926544
-0.896069
-0.864873
-0.833455
-0.802392
-0.772194
-0.743293
-0.716027
-0.690628
-0.667231
-0.645882
-0.626559
-0.609182
-0.593636
-0.579782
-0.567469
-0.556543
-0.546854
-0.538259
-0.530627
-0.523838
-0.517784
-0.512369
-0.507508
-0.503125
-0.499155
-0.495541
-0.492232
-0.489184
-0.486358
-0.483721
-0.481241
-0.478893
-0.476652
-0.474499
-0.472413
-0.470379
-0.468381
-0.466406
-0.464441
-0.462477
-0.460503
-0.458511
-0.456494
-0.454445
-0.452358
-0.450231
-0.448057
-0.445836
-0.443564
-0.44124
-0.438862
-0.436429
-0.433941
-0.431397
-0.428796
-0.426139
-0.423427
-0.420659
-0.417836
-0.414959
-0.412029
-0.409047
-0.406013
-0.40293
-0.399797
-0.396616
-0.393388
-0.390113
-0.386794
-0.383431
-0.380025
-0.376576
-0.373086
-0.369555
-0.365984
-0.362374
-0.358725
-0.355039
-0.351315
-0.347554
-0.343757
-0.339924
-0.336055
-0.332152
-0.328213
-0.32424
-0.320233
-0.316192
-0.312116
-0.308007
-0.303863
-0.299686
-0.295474
-0.291228
-0.286948
-0.282634
-0.278285
-0.273902
-0.269483
-0.265031
-0.260543
-0.25602
-0.251461
-0.246868
-0.242238
-0.237572
-0.23287
-0.228132
-0.223356
-0.218544
-0.213694
-0.208806
-0.203881
-0.198917
-0.193916
-0.188875
-0.183796
-0.178677
-0.17352
-0.168324
-0.163089
-0.157816
-0.152505
-0.147158
-0.141776
-0.136363
-0.130925
-0.12547
-0.120008
-0.114569
-0.109149
-0.103911
-0.904739
-0.904732
-0.904832
-0.905126
-0.905669
-0.906508
-0.907684
-0.909227
-0.911169
-0.913542
-0.91638
-0.919726
-0.923627
-0.928132
-0.933291
-0.939151
-0.945755
-0.953134
-0.961307
-0.970278
-0.980029
-0.99052
-1.00168
-1.01342
-1.02559
-1.03805
-1.0506
-1.06301
-1.07503
-1.0864
-1.09684
-1.10607
-1.11381
-1.11983
-1.12388
-1.12577
-1.12533
-1.12244
-1.11699
-1.10886
-1.09798
-1.08425
-1.06763
-1.04808
-1.02566
-1.00051
-0.972906
-0.943246
-0.912041
-0.879895
-0.84744
-0.815303
-0.784053
-0.754165
-0.726003
-0.699814
-0.675734
-0.653803
-0.633984
-0.616185
-0.600275
-0.586101
-0.5735
-0.562311
-0.552374
-0.543543
-0.535683
-0.528672
-0.5224
-0.51677
-0.511698
-0.507108
-0.502936
-0.499124
-0.495623
-0.492389
-0.489383
-0.486572
-0.483926
-0.481419
-0.479027
-0.476728
-0.474505
-0.47234
-0.470218
-0.468125
-0.466049
-0.463979
-0.461905
-0.459819
-0.457712
-0.455578
-0.453411
-0.451208
-0.448963
-0.446674
-0.444338
-0.441954
-0.439519
-0.437033
-0.434494
-0.431903
-0.429258
-0.42656
-0.42381
-0.421006
-0.41815
-0.415243
-0.412285
-0.409276
-0.406219
-0.403114
-0.399961
-0.396762
-0.393517
-0.390228
-0.386896
-0.38352
-0.380103
-0.376645
-0.373146
-0.369607
-0.366029
-0.362413
-0.358759
-0.355068
-0.351339
-0.347575
-0.343775
-0.339939
-0.336068
-0.332163
-0.328223
-0.324248
-0.32024
-0.316197
-0.312121
-0.308011
-0.303867
-0.299689
-0.295477
-0.291231
-0.286951
-0.282636
-0.278287
-0.273904
-0.269486
-0.265033
-0.260545
-0.256022
-0.251464
-0.246871
-0.242242
-0.237576
-0.232875
-0.228137
-0.223363
-0.218551
-0.213702
-0.208816
-0.203893
-0.198931
-0.193932
-0.188894
-0.183819
-0.178705
-0.173554
-0.168364
-0.163138
-0.157875
-0.152577
-0.147245
-0.141883
-0.136494
-0.131084
-0.125663
-0.120243
-0.11485
-0.109488
-0.104278
-0.906985
-0.906861
-0.906843
-0.907044
-0.907516
-0.908303
-0.909446
-0.910978
-0.912929
-0.915331
-0.918218
-0.921632
-0.925619
-0.930229
-0.935514
-0.941524
-0.948303
-0.955884
-0.964289
-0.973523
-0.983566
-0.994378
-1.00589
-1.01799
-1.03056
-1.04341
-1.05636
-1.06917
-1.08157
-1.09331
-1.1041
-1.11366
-1.12172
-1.12804
-1.13241
-1.13463
-1.13456
-1.1321
-1.12711
-1.11951
-1.10918
-1.09601
-1.07991
-1.0608
-1.0387
-1.01369
-0.986041
-0.956132
-0.924504
-0.891793
-0.85869
-0.82587
-0.793949
-0.763433
-0.734708
-0.708026
-0.683523
-0.661228
-0.641096
-0.62302
-0.60686
-0.592454
-0.579631
-0.568223
-0.558071
-0.549024
-0.540946
-0.533717
-0.527226
-0.521378
-0.51609
-0.511286
-0.506904
-0.502887
-0.499185
-0.495757
-0.492563
-0.489571
-0.486752
-0.484078
-0.481527
-0.479077
-0.47671
-0.474408
-0.472156
-0.46994
-0.467747
-0.465566
-0.463388
-0.461202
-0.459001
-0.456778
-0.454528
-0.452244
-0.449924
-0.447564