/*--------------------------------*- C++ -*----------------------------------*\
  =========                 |
  \\      /  F ield         | OpenFOAM: The Open Source CFD Toolbox
   \\    /   O peration     | Website:  https://openfoam.org
    \\  /    A nd           | Version:  8
     \\/     M anipulation  |
\*---------------------------------------------------------------------------*/
FoamFile
{
    version     2.0;
    format      ascii;
    class       surfaceScalarField;
    location    "0.18";
    object      phi;
}
// * * * * * * * * * * * * * * * * * * * * * * * * * * * * * * * * * * * * * //

dimensions      [0 3 -1 0 0 0 0];

internalField   nonuniform List<scalar> 
24170
(
1.15851e-07
1.72543e-07
5.55976e-08
6.02538e-08
4.01947e-08
1.54029e-08
3.43079e-08
5.88678e-09
3.07515e-08
3.55644e-09
2.81365e-08
2.61494e-09
2.62392e-08
1.89733e-09
2.48485e-08
1.39072e-09
2.37984e-08
1.05011e-09
2.29974e-08
8.00996e-10
2.23915e-08
6.05878e-10
2.1945e-08
4.46497e-10
2.16369e-08
3.08113e-10
2.14621e-08
1.7475e-10
2.1454e-08
8.08616e-12
2.17452e-08
-2.91182e-10
2.30735e-08
-1.32826e-09
-8.33343e-09
3.14069e-08
2.49136e-07
2.325e-07
1.7298e-07
1.3641e-07
1.32883e-07
5.55007e-08
1.1199e-07
2.67788e-08
9.99786e-08
1.55683e-08
9.18199e-08
1.07737e-08
8.58259e-08
7.89132e-09
8.13527e-08
5.86392e-09
7.79617e-08
4.44107e-09
7.53644e-08
3.39829e-09
7.3383e-08
2.58728e-09
7.19032e-08
1.9263e-09
7.08544e-08
1.35694e-09
7.02089e-08
8.2027e-10
6.99999e-08
2.17094e-10
7.04094e-08
-7.00718e-10
7.1898e-08
-2.81685e-09
-1.06833e-08
7.42479e-08
3.33728e-07
2.3005e-07
2.821e-07
1.88037e-07
2.34728e-07
1.02873e-07
2.01844e-07
5.96622e-08
1.80717e-07
3.66953e-08
1.66468e-07
2.50233e-08
1.56046e-07
1.83133e-08
1.48169e-07
1.37402e-08
1.4214e-07
1.04701e-08
1.37488e-07
8.05066e-09
1.33905e-07
6.17041e-09
1.31191e-07
4.64022e-09
1.29218e-07
3.33002e-09
1.27919e-07
2.11883e-09
1.27292e-07
8.4456e-10
1.27429e-07
-8.37743e-10
1.28275e-07
-3.66288e-09
-1.05236e-08
1.28115e-07
3.86888e-07
1.98216e-07
3.67709e-07
2.07216e-07
3.30936e-07
1.39647e-07
2.96294e-07
9.43041e-08
2.69452e-07
6.35371e-08
2.49957e-07
4.45188e-08
2.35422e-07
3.28482e-08
2.24262e-07
2.48998e-08
2.15588e-07
1.9145e-08
2.08806e-07
1.48322e-08
2.03512e-07
1.1464e-08
1.99433e-07
8.71966e-09
1.96384e-07
6.37935e-09
1.94249e-07
4.25325e-09
1.92966e-07
2.12796e-09
1.92482e-07
-3.54226e-10
1.925e-07
-3.68087e-09
-9.3629e-09
1.9134e-07
4.20548e-07
1.58206e-07
4.27213e-07
2.00551e-07
4.09451e-07
1.57409e-07
3.83679e-07
1.20076e-07
3.58268e-07
8.8948e-08
3.37085e-07
6.57022e-08
3.20204e-07
4.97288e-08
3.06753e-07
3.83507e-08
2.96015e-07
2.98826e-08
2.87444e-07
2.34033e-08
2.80626e-07
1.82824e-08
2.75261e-07
1.4085e-08
2.71133e-07
1.05064e-08
2.68089e-07
7.29723e-09
2.66004e-07
4.21362e-09
2.64713e-07
9.36449e-10
2.63843e-07
-2.81079e-09
-7.68992e-09
2.6217e-07
4.45035e-07
1.21021e-07
4.66328e-07
1.79259e-07
4.66331e-07
1.57406e-07
4.54659e-07
1.31748e-07
4.3746e-07
1.06147e-07
4.19839e-07
8.33227e-08
4.04039e-07
6.55291e-08
3.90504e-07
5.18854e-08
3.79161e-07
4.12261e-08
3.69783e-07
3.27813e-08
3.6211e-07
2.59555e-08
3.5591e-07
2.02847e-08
3.50993e-07
1.5423e-08
3.472e-07
1.10907e-08
3.44372e-07
7.04126e-09
3.42295e-07
3.01364e-09
3.40604e-07
-1.11998e-09
-5.61177e-09
3.38526e-07
4.67475e-07
9.06693e-08
4.93945e-07
1.52789e-07
5.05482e-07
1.4587e-07
5.06782e-07
1.30448e-07
5.00572e-07
1.12357e-07
4.90554e-07
9.33408e-08
4.79522e-07
7.65613e-08
4.68826e-07
6.25808e-08
4.59083e-07
5.097e-08
4.50538e-07
4.13262e-08
4.4323e-07
3.32632e-08
4.37103e-07
2.64116e-08
4.32066e-07
2.046e-08
4.28009e-07
1.51482e-08
4.24791e-07
1.02595e-08
4.22206e-07
5.5982e-09
4.19956e-07
1.12977e-09
-3.24875e-09
4.17593e-07
4.91731e-07
6.74362e-08
5.17795e-07
1.26725e-07
5.34475e-07
1.29189e-07
5.44137e-07
1.20786e-07
5.47372e-07
1.09122e-07
5.45808e-07
9.49045e-08
5.41514e-07
8.08558e-08
5.35901e-07
6.81934e-08
5.29862e-07
5.70089e-08
5.23962e-07
4.72262e-08
5.18518e-07
3.87076e-08
5.1368e-07
3.12498e-08
5.09499e-07
2.46408e-08
5.05959e-07
1.86881e-08
5.02984e-07
1.32347e-08
5.00429e-07
8.15256e-09
4.98095e-07
3.46438e-09
-8.96366e-10
4.95742e-07
5.19381e-07
5.0178e-08
5.42667e-07
1.03439e-07
5.60329e-07
1.11527e-07
5.73669e-07
1.07446e-07
5.827e-07
1.00091e-07
5.87666e-07
8.99382e-08
5.89627e-07
7.88948e-08
5.8955e-07
6.82698e-08
5.88169e-07
5.839e-08
5.86058e-07
4.9338e-08
5.8363e-07
4.1135e-08
5.81157e-07
3.3723e-08
5.78797e-07
2.70006e-08
5.76625e-07
2.08605e-08
5.74642e-07
1.52172e-08
5.72789e-07
1.00061e-08
5.7097e-07
5.28298e-09
9.92886e-10
5.69081e-07
5.50837e-07
3.75033e-08
5.70771e-07
8.35045e-08
5.87517e-07
9.47816e-08
6.01536e-07
9.34281e-08
6.12988e-07
8.86378e-08
6.21614e-07
8.13125e-08
6.27796e-07
7.27132e-08
6.32049e-07
6.40169e-08
6.348e-07
5.5639e-08
6.36434e-07
4.77034e-08
6.37287e-07
4.02824e-08
6.37615e-07
3.33951e-08
6.37599e-07
2.70164e-08
6.37353e-07
2.11068e-08
6.36931e-07
1.5639e-08
6.36339e-07
1.05978e-08
6.35571e-07
6.05163e-09
1.96445e-09
6.34599e-07
5.86082e-07
2.82097e-08
6.02824e-07
6.67625e-08
6.18109e-07
7.94965e-08
6.31514e-07
8.0023e-08
6.43364e-07
7.67876e-08
6.53376e-07
7.13004e-08
6.61634e-07
6.44551e-08
6.684e-07
5.7251e-08
6.73885e-07
5.01537e-08
6.78284e-07
4.33049e-08
6.81789e-07
3.67773e-08
6.84571e-07
3.06127e-08
6.86765e-07
2.48224e-08
6.88468e-07
1.94038e-08
6.89745e-07
1.43623e-08
6.90633e-07
9.71038e-09
6.91172e-07
5.51259e-09
1.76039e-09
6.91376e-07
5.25268e-07
2.22049e-08
5.37184e-07
5.48462e-08
5.48948e-07
6.77329e-08
5.59595e-07
6.93758e-08
5.69296e-07
6.70865e-08
5.77907e-07
6.26903e-08
5.85421e-07
5.69411e-08
5.91968e-07
5.07033e-08
5.97658e-07
4.44644e-08
6.02573e-07
3.83894e-08
6.068e-07
3.25503e-08
6.1042e-07
2.69932e-08
6.135e-07
2.17416e-08
6.16097e-07
1.68073e-08
6.18252e-07
1.22069e-08
6.20001e-07
7.96193e-09
6.21389e-07
4.12417e-09
6.95601e-10
6.22454e-07
6.38304e-07
1.68897e-08
6.4983e-07
4.33201e-08
6.62016e-07
5.55471e-08
6.7339e-07
5.80022e-08
6.83987e-07
5.6489e-08
6.93656e-07
5.3022e-08
7.02333e-07
4.82637e-08
7.1012e-07
4.29163e-08
7.17115e-07
3.74693e-08
7.23382e-07
3.2123e-08
7.28974e-07
2.69579e-08
7.33944e-07
2.20232e-08
7.38336e-07
1.73498e-08
7.42186e-07
1.29571e-08
7.45528e-07
8.86453e-09
7.48396e-07
5.09448e-09
7.50839e-07
1.68064e-09
-1.36503e-09
7.529e-07
7.76209e-07
1.23028e-08
7.87005e-07
3.25248e-08
7.99358e-07
4.31937e-08
8.11338e-07
4.60219e-08
8.2273e-07
4.50967e-08
8.3336e-07
4.23926e-08
8.43091e-07
3.85323e-08
8.51965e-07
3.40426e-08
8.60068e-07
2.93663e-08
8.67461e-07
2.47302e-08
8.74188e-07
2.02302e-08
8.80291e-07
1.59204e-08
8.85804e-07
1.18372e-08
8.90756e-07
8.00516e-09
8.95177e-07
4.4437e-09
8.991e-07
1.17062e-09
9.02578e-07
-1.79701e-09
-4.44457e-09
9.05658e-07
9.44547e-07
8.37372e-09
9.54435e-07
2.2637e-08
9.66709e-07
3.09201e-08
9.79205e-07
3.35256e-08
9.91364e-07
3.29382e-08
1.00295e-06
3.08102e-08
1.01375e-06
2.773e-08
1.02372e-06
2.40702e-08
1.03291e-06
2.01789e-08
1.04136e-06
1.62767e-08
1.04912e-06
1.2469e-08
1.05623e-06
8.81236e-09
1.06272e-06
5.34518e-09
1.06863e-06
2.09365e-09
1.074e-06
-9.23707e-10
1.07887e-06
-3.69408e-09
1.08328e-06
-6.20963e-09
-8.45925e-09
1.08729e-06
1.15004e-06
4.95536e-09
1.15909e-06
1.35891e-08
1.17117e-06
1.88448e-08
1.18415e-06
2.05422e-08
1.19714e-06
1.99479e-08
1.20976e-06
1.81877e-08
1.22175e-06
1.57413e-08
1.23297e-06
1.28565e-08
1.24338e-06
9.76452e-09
1.25302e-06
6.6393e-09
1.26191e-06
3.57648e-09
1.2701e-06
6.27541e-10
1.27761e-06
-2.17339e-09
1.28451e-06
-4.8022e-09
1.29083e-06
-7.24277e-09
1.29662e-06
-9.48519e-09
1.30194e-06
-1.15261e-08
-1.33585e-08
1.30684e-06
1.40087e-06
1.83502e-09
1.40945e-06
5.01612e-09
1.42154e-06
6.75236e-09
1.4352e-06
6.88155e-09
1.44927e-06
5.88124e-09
1.46318e-06
4.27656e-09
1.47659e-06
2.32392e-09
1.4893e-06
1.49153e-10
1.5012e-06
-2.13491e-09
1.51227e-06
-4.43214e-09
1.52253e-06
-6.68192e-09
1.53201e-06
-8.84967e-09
1.54075e-06
-1.09118e-08
1.5488e-06
-1.28505e-08
1.55621e-06
-1.46535e-08
1.56303e-06
-1.63133e-08
1.56934e-06
-1.78278e-08
-1.91912e-08
1.57517e-06
1.70703e-06
-1.31393e-09
1.71596e-06
-3.91092e-09
1.72895e-06
-6.24117e-09
1.74406e-06
-8.23008e-09
1.7599e-06
-9.95745e-09
1.77572e-06
-1.15426e-08
1.7911e-06
-1.30562e-08
1.80577e-06
-1.45202e-08
1.81957e-06
-1.59403e-08
1.83246e-06
-1.73176e-08
1.84443e-06
-1.86494e-08
1.85551e-06
-1.9929e-08
1.86574e-06
-2.11478e-08
1.87519e-06
-2.22973e-08
1.88391e-06
-2.337e-08
1.89195e-06
-2.43599e-08
1.89939e-06
-2.52638e-08
-2.60742e-08
1.90627e-06
2.08096e-06
-5.22179e-09
2.09219e-06
-1.514e-08
2.10844e-06
-2.24906e-08
2.12713e-06
-2.69217e-08
2.14654e-06
-2.93631e-08
2.1658e-06
-3.08007e-08
2.18443e-06
-3.16924e-08
2.20213e-06
-3.22211e-08
2.21873e-06
-3.2537e-08
2.23417e-06
-3.27627e-08
2.24849e-06
-3.29627e-08
2.26172e-06
-3.316e-08
2.27393e-06
-3.33608e-08
2.2852e-06
-3.35649e-08
2.2956e-06
-3.3768e-08
2.3052e-06
-3.39626e-08
2.31408e-06
-3.41422e-08
-3.42939e-08
2.3223e-06
1.52455e-06
-9.22489e-09
1.53548e-06
-2.60792e-08
1.55033e-06
-3.73371e-08
1.56637e-06
-4.29569e-08
1.58232e-06
-4.5315e-08
1.59774e-06
-4.62198e-08
1.61235e-06
-4.63052e-08
1.62598e-06
-4.5854e-08
1.6386e-06
-4.51497e-08
1.65023e-06
-4.43944e-08
1.66094e-06
-4.36762e-08
1.6708e-06
-4.30233e-08
1.67989e-06
-4.24444e-08
1.68826e-06
-4.19384e-08
1.69599e-06
-4.14961e-08
1.70313e-06
-4.11047e-08
1.70974e-06
-4.07509e-08
-4.04167e-08
1.71586e-06
1.32896e-06
-1.44764e-08
1.34273e-06
-3.98485e-08
1.35986e-06
-5.44697e-08
1.37696e-06
-6.00537e-08
1.39322e-06
-6.15716e-08
1.40852e-06
-6.152e-08
1.42268e-06
-6.04727e-08
1.43566e-06
-5.88286e-08
1.44752e-06
-5.70128e-08
1.45838e-06
-5.52549e-08
1.46833e-06
-5.36245e-08
1.47745e-06
-5.21383e-08
1.4858e-06
-5.0799e-08
1.49346e-06
-4.95981e-08
1.50048e-06
-4.85184e-08
1.50692e-06
-4.75408e-08
1.51281e-06
-4.66451e-08
-4.5816e-08
1.51821e-06
1.15995e-06
-2.20666e-08
1.17824e-06
-5.81461e-08
1.1985e-06
-7.47284e-08
1.21715e-06
-7.86991e-08
1.23429e-06
-7.87166e-08
1.25004e-06
-7.72722e-08
1.26425e-06
-7.46813e-08
1.27698e-06
-7.15509e-08
1.28837e-06
-6.84074e-08
1.29855e-06
-6.54379e-08
1.30761e-06
-6.26781e-08
1.31561e-06
-6.0141e-08
1.32264e-06
-5.78286e-08
1.32877e-06
-5.57282e-08
1.33407e-06
-5.38181e-08
1.33861e-06
-5.20772e-08
1.34244e-06
-5.04789e-08
-4.90214e-08
1.34564e-06
1.01486e-06
-3.37474e-08
1.03945e-06
-8.27323e-08
1.06328e-06
-9.85588e-08
1.08389e-06
-9.93077e-08
1.10231e-06
-9.71334e-08
1.1184e-06
-9.33661e-08
1.13197e-06
-8.82527e-08
1.14321e-06
-8.27919e-08
1.15236e-06
-7.7558e-08
1.15961e-06
-7.2686e-08
1.16515e-06
-6.82131e-08
1.16917e-06
-6.41619e-08
1.17186e-06
-6.05252e-08
1.17341e-06
-5.72719e-08
1.17395e-06
-5.43618e-08
1.17363e-06
-5.17569e-08
1.17256e-06
-4.94114e-08
-4.73239e-08
1.17087e-06
8.91854e-07
-5.22791e-08
9.24322e-07
-1.15201e-07
9.51587e-07
-1.25823e-07
9.73486e-07
-1.21207e-07
9.91061e-07
-1.14709e-07
1.00379e-06
-1.06091e-07
1.01198e-06
-9.64422e-08
1.01645e-06
-8.7267e-08
1.01793e-06
-7.90396e-08
1.01703e-06
-7.17783e-08
1.01426e-06
-6.54496e-08
1.01009e-06
-5.99866e-08
1.00485e-06
-5.52856e-08
9.9881e-07
-5.1235e-08
9.92181e-07
-4.77329e-08
9.85116e-07
-4.4692e-08
9.77736e-07
-4.20312e-08
-3.97197e-08
9.70132e-07
7.89486e-07
-8.1494e-08
8.29787e-07
-1.55502e-07
8.57072e-07
-1.53108e-07
8.74107e-07
-1.38242e-07
8.82097e-07
-1.22699e-07
8.82114e-07
-1.06108e-07
8.76576e-07
-9.09039e-08
8.67579e-07
-7.82705e-08
8.56503e-07
-6.7963e-08
8.44282e-07
-5.95571e-08
8.3155e-07
-5.27177e-08
8.18703e-07
-4.714e-08
8.05974e-07
-4.2557e-08
7.93496e-07
-3.87566e-08
7.81339e-07
-3.55755e-08
7.69533e-07
-3.28863e-08
7.58091e-07
-3.05891e-08
-2.8623e-08
7.46994e-07
7.05279e-07
-1.24918e-07
7.46201e-07
-1.96424e-07
7.61069e-07
-1.67976e-07
7.58957e-07
-1.36129e-07
7.45111e-07
-1.08852e-07
7.2493e-07
-8.59273e-08
7.02819e-07
-6.87933e-08
6.80946e-07
-5.63976e-08
6.60176e-07
-4.71925e-08
6.40834e-07
-4.02153e-08
6.22971e-07
-3.48551e-08
6.06497e-07
-3.06657e-08
5.9127e-07
-2.73305e-08
5.77146e-07
-2.46321e-08
5.63988e-07
-2.24177e-08
5.51676e-07
-2.05739e-08
5.40107e-07
-1.90207e-08
-1.76941e-08
5.29178e-07
6.3043e-07
-1.7917e-07
6.50011e-07
-2.16005e-07
6.32841e-07
-1.50807e-07
6.0046e-07
-1.03748e-07
5.63944e-07
-7.23365e-08
5.30027e-07
-5.20111e-08
5.00846e-07
-3.96121e-08
4.76011e-07
-3.15624e-08
4.54714e-07
-2.58959e-08
4.36264e-07
-2.17649e-08
4.2009e-07
-1.86806e-08
4.05738e-07
-1.6314e-08
3.92862e-07
-1.44545e-08
3.81196e-07
-1.29661e-08
3.70534e-07
-1.17556e-08
3.60713e-07
-1.07533e-08
3.51608e-07
-9.91521e-09
-9.19243e-09
3.43106e-07
5.42255e-07
-2.19833e-07
5.09882e-07
-1.83632e-07
4.54338e-07
-9.52634e-08
4.02694e-07
-5.21037e-08
3.61862e-07
-3.1504e-08
3.31483e-07
-2.16325e-08
3.08298e-07
-1.64272e-08
2.89751e-07
-1.30154e-08
2.74444e-07
-1.05892e-08
2.6153e-07
-8.85062e-09
2.5042e-07
-7.57064e-09
2.407e-07
-6.59412e-09
2.32076e-07
-5.83007e-09
2.24331e-07
-5.22115e-09
2.17303e-07
-4.72774e-09
2.10869e-07
-4.31923e-09
2.04934e-07
-3.98006e-09
-3.67943e-09
1.99421e-07
4.06692e-07
-1.89864e-07
3.14496e-07
-9.14357e-08
2.48681e-07
-2.94484e-08
2.0825e-07
-1.16724e-08
1.83325e-07
-6.57943e-09
1.66516e-07
-4.82349e-09
1.5384e-07
-3.75095e-09
1.43765e-07
-2.94065e-09
1.35551e-07
-2.37491e-09
1.28684e-07
-1.9833e-09
1.22809e-07
-1.69636e-09
1.17692e-07
-1.4766e-09
1.13166e-07
-1.30473e-09
1.09113e-07
-1.16805e-09
1.05443e-07
-1.05754e-09
1.02089e-07
-9.65427e-10
9.89999e-08
-8.90602e-10
-8.1908e-10
9.61395e-08
1.90272e-07
9.88359e-08
6.93875e-08
5.77152e-08
5.11357e-08
4.63123e-08
4.25613e-08
3.96207e-08
3.72457e-08
3.52624e-08
3.35661e-08
3.20895e-08
3.07848e-08
2.96167e-08
2.85592e-08
2.75937e-08
2.67031e-08
2.58841e-08
4.78267e-10
-4.78267e-10
1.21591e-09
-7.37642e-10
1.8338e-09
-6.17889e-10
2.17333e-09
-3.39528e-10
2.20105e-09
-2.77201e-11
1.9427e-09
2.5835e-10
1.43831e-09
5.04388e-10
7.2274e-10
7.15567e-10
-1.86123e-10
9.08864e-10
-1.28946e-09
1.10334e-09
-2.6048e-09
1.31534e-09
-4.16163e-09
1.55683e-09
-5.99698e-09
1.83534e-09
-8.15192e-09
2.15494e-09
-1.06693e-08
2.51739e-09
-1.35924e-08
2.92306e-09
-1.69638e-08
3.37147e-09
-2.08254e-08
3.86156e-09
-2.5217e-08
4.39157e-09
-3.01759e-08
4.95891e-09
-3.57357e-08
5.55981e-09
-4.19247e-08
6.18902e-09
-4.87643e-08
6.83954e-09
-5.62666e-08
7.50234e-09
-6.44328e-08
8.16615e-09
-7.32502e-08
8.81743e-09
-8.26905e-08
9.44035e-09
-9.27076e-08
1.00171e-08
-1.03236e-07
1.05279e-08
-1.14188e-07
1.09522e-08
-1.25456e-07
1.12687e-08
-1.36913e-07
1.14565e-08
-1.48409e-07
1.14963e-08
-1.5978e-07
1.13707e-08
-1.70846e-07
1.10662e-08
-1.81419e-07
1.05731e-08
-1.91306e-07
9.88703e-09
-2.00315e-07
9.00912e-09
-2.08262e-07
7.94653e-09
-2.14974e-07
6.71244e-09
-2.203e-07
5.3254e-09
-2.24108e-07
3.80836e-09
-2.26295e-07
2.18673e-09
-2.26787e-07
4.92181e-10
-2.25556e-07
-1.23084e-09
-2.22614e-07
-2.94219e-09
-2.18006e-07
-4.60753e-09
-2.11813e-07
-6.19393e-09
-2.04142e-07
-7.67078e-09
-1.95131e-07
-9.01102e-09
-1.84939e-07
-1.01922e-08
-1.73742e-07
-1.1197e-08
-1.61728e-07
-1.20138e-08
-1.49091e-07
-1.26369e-08
-1.36025e-07
-1.3066e-08
-1.22719e-07
-1.33064e-08
-1.09351e-07
-1.33679e-08
-9.60861e-08
-1.32645e-08
-8.30729e-08
-1.30132e-08
-7.04396e-08
-1.26333e-08
-5.82942e-08
-1.21453e-08
-4.67238e-08
-1.15704e-08
-3.57939e-08
-1.09299e-08
-2.55492e-08
-1.02447e-08
-1.60183e-08
-9.5309e-09
-7.21908e-09
-8.79922e-09
8.44022e-10
-8.0631e-09
8.17997e-09
-7.33594e-09
1.48091e-08
-6.62917e-09
2.07593e-08
-5.95018e-09
2.6064e-08
-5.30468e-09
3.07607e-08
-4.69673e-09
3.48896e-08
-4.12891e-09
3.84921e-08
-3.60251e-09
4.16099e-08
-3.1178e-09
4.42842e-08
-2.67421e-09
4.65547e-08
-2.27053e-09
4.84598e-08
-1.90508e-09
5.00356e-08
-1.57586e-09
5.13163e-08
-1.28066e-09
5.23335e-08
-1.01718e-09
5.31165e-08
-7.83078e-10
5.36926e-08
-5.76049e-10
5.40865e-08
-3.93891e-10
5.4321e-08
-2.34519e-10
5.4416e-08
-9.50295e-11
5.4391e-08
2.50321e-11
5.4263e-08
1.28042e-10
5.4047e-08
2.15996e-10
5.37567e-08
2.90238e-10
5.34046e-08
3.5207e-10
5.30019e-08
4.02759e-10
5.25584e-08
4.43484e-10
5.20831e-08
4.75336e-10
5.15837e-08
4.99338e-10
5.10673e-08
5.16424e-10
5.05399e-08
5.27453e-10
5.00066e-08
5.33208e-10
4.94722e-08
5.34395e-10
4.89406e-08
5.3166e-10
4.8415e-08
5.25584e-10
4.78983e-08
5.16699e-10
4.73928e-08
5.05483e-10
4.69004e-08
4.92371e-10
4.64227e-08
4.77752e-10
4.59607e-08
4.61981e-10
4.55153e-08
4.45373e-10
4.50871e-08
4.2821e-10
4.46764e-08
4.1074e-10
4.42832e-08
3.93185e-10
4.39075e-08
3.75731e-10
4.35489e-08
3.58539e-10
4.32072e-08
3.4174e-10
4.28817e-08
3.25445e-10
4.2572e-08
3.09738e-10
4.22773e-08
2.94688e-10
4.1997e-08
2.80341e-10
4.17302e-08
2.66735e-10
4.14764e-08
2.53887e-10
4.12345e-08
2.41811e-10
4.1004e-08
2.30499e-10
4.07841e-08
2.19941e-10
4.0574e-08
2.10114e-10
4.0373e-08
2.00993e-10
4.01804e-08
1.92548e-10
3.99957e-08
1.84747e-10
3.98181e-08
1.77566e-10
3.96472e-08
1.70974e-10
3.94822e-08
1.64947e-10
3.93228e-08
1.59459e-10
3.91683e-08
1.54479e-10
3.90183e-08
1.49982e-10
3.88724e-08
1.45937e-10
3.873e-08
1.42319e-10
3.85909e-08
1.39098e-10
3.84547e-08
1.36249e-10
3.83209e-08
1.33745e-10
3.81894e-08
1.31567e-10
3.80597e-08
1.29686e-10
3.79316e-08
1.28083e-10
3.78049e-08
1.26736e-10
3.76793e-08
1.25623e-10
3.75545e-08
1.24725e-10
3.74305e-08
1.24021e-10
3.7307e-08
1.23497e-10
3.71839e-08
1.23139e-10
3.70609e-08
1.2294e-10
3.6938e-08
1.22896e-10
3.6815e-08
1.23006e-10
3.66918e-08
1.23272e-10
3.65681e-08
1.23695e-10
3.64438e-08
1.24286e-10
3.63187e-08
1.25052e-10
3.61927e-08
1.26007e-10
3.60655e-08
1.27173e-10
3.5937e-08
1.28576e-10
3.58067e-08
1.30252e-10
3.56745e-08
1.32247e-10
3.55399e-08
1.34621e-10
3.54024e-08
1.3745e-10
3.52616e-08
1.40831e-10
3.51167e-08
1.44885e-10
3.49669e-08
1.49765e-10
3.48113e-08
1.55664e-10
3.46484e-08
1.62826e-10
3.44769e-08
1.71561e-10
3.42946e-08
1.8226e-10
3.40992e-08
1.95426e-10
3.38875e-08
2.11706e-10
3.36555e-08
2.31941e-10
3.33983e-08
2.57235e-10
3.31092e-08
2.89089e-10
3.27797e-08
3.29467e-10
3.23981e-08
3.81607e-10
3.19495e-08
4.48677e-10
3.14059e-08
5.43583e-10
3.07467e-08
6.59193e-10
2.98061e-08
9.4057e-10
2.86606e-08
1.14551e-09
2.91349e-09
2.57471e-08
1.44715e-10
-6.22982e-10
-1.49524e-11
-5.77974e-10
-8.07368e-10
1.74527e-10
-2.34814e-09
1.20125e-09
-4.62886e-09
2.253e-09
-7.5869e-09
3.21639e-09
-1.11498e-08
4.06726e-09
-1.52667e-08
4.83249e-09
-1.99193e-08
5.56148e-09
-2.51222e-08
6.3062e-09
-3.09169e-08
7.11011e-09
-3.73641e-08
8.00395e-09
-4.45348e-08
9.00613e-09
-5.2505e-08
1.01251e-08
-6.13496e-08
1.1362e-08
-7.11394e-08
1.27128e-08
-8.19375e-08
1.41696e-08
-9.37966e-08
1.57207e-08
-1.06756e-07
1.73507e-08
-1.20837e-07
1.904e-08
-1.36041e-07
2.07644e-08
-1.52347e-07
2.24945e-08
-1.69703e-07
2.41959e-08
-1.8803e-07
2.58292e-08
-2.07214e-07
2.73507e-08
-2.27111e-07
2.87134e-08
-2.47538e-07
2.98683e-08
-2.68287e-07
3.07657e-08
-2.89117e-07
3.13576e-08
-3.09764e-07
3.15993e-08
-3.29946e-07
3.14513e-08
-3.49371e-07
3.08814e-08
-3.67741e-07
2.98661e-08
-3.84762e-07
2.83919e-08
-4.00152e-07
2.64563e-08
-4.13648e-07
2.40686e-08
-4.2501e-07
2.12492e-08
-4.34031e-07
1.80305e-08
-4.4054e-07
1.44551e-08
-4.44403e-07
1.05752e-08
-4.45529e-07
6.45167e-09
-4.43873e-07
2.15243e-09
-4.39443e-07
-2.2429e-09
-4.32297e-07
-6.65398e-09
-4.22517e-07
-1.10109e-08
-4.10217e-07
-1.52424e-08
-3.95546e-07
-1.92787e-08
-3.78685e-07
-2.3055e-08
-3.59843e-07
-2.65128e-08
-3.39252e-07
-2.96021e-08
-3.17162e-07
-3.22822e-08
-2.93836e-07
-3.45231e-08
-2.69543e-07
-3.63063e-08
-2.44555e-07
-3.76246e-08
-2.19139e-07
-3.84822e-08
-1.93552e-07
-3.88939e-08
-1.68036e-07
-3.88838e-08
-1.42816e-07
-3.84839e-08
-1.18097e-07
-3.77325e-08
-9.40577e-08
-3.66726e-08
-7.08533e-08
-3.53498e-08
-4.86114e-08
-3.38123e-08
-2.74349e-08
-3.21064e-08
-7.4124e-09
-3.02672e-08
1.13886e-08
-2.83319e-08
2.89331e-08
-2.63438e-08
4.52083e-08
-2.43383e-08
6.02162e-08
-2.23438e-08
7.39727e-08
-2.03857e-08
8.65073e-08
-1.84847e-08
9.786e-08
-1.66574e-08
1.0808e-07
-1.49163e-08
1.17221e-07
-1.32703e-08
1.25344e-07
-1.17254e-08
1.32511e-07
-1.02848e-08
1.38786e-07
-8.94945e-09
1.44234e-07
-7.71853e-09
1.48919e-07
-6.58978e-09
1.52903e-07
-5.55984e-09
1.56247e-07
-4.6245e-09
1.59009e-07
-3.77902e-09
1.61244e-07
-3.01827e-09
1.63005e-07
-2.33696e-09
1.64341e-07
-1.72972e-09
1.65297e-07
-1.19124e-09
1.65918e-07
-7.16113e-10
1.66242e-07
-2.98671e-10
1.66307e-07
6.33099e-11
1.66146e-07
3.76719e-10
1.65791e-07
6.45634e-10
1.65269e-07
8.73889e-10
1.64606e-07
1.06528e-09
1.63826e-07
1.2234e-09
1.6295e-07
1.35163e-09
1.61996e-07
1.45313e-09
1.60982e-07
1.53087e-09
1.59922e-07
1.58758e-09
1.58829e-07
1.62578e-09
1.57716e-07
1.64781e-09
1.56592e-07
1.6558e-09
1.55465e-07
1.65173e-09
1.54345e-07
1.63739e-09
1.53236e-07
1.61443e-09
1.52144e-07
1.58434e-09
1.51073e-07
1.54847e-09
1.50027e-07
1.50804e-09
1.49008e-07
1.46415e-09
1.48019e-07
1.41776e-09
1.4706e-07
1.36972e-09
1.46132e-07
1.32079e-09
1.45236e-07
1.2716e-09
1.44372e-07
1.22272e-09
1.43539e-07
1.17459e-09
1.42737e-07
1.12761e-09
1.41965e-07
1.08207e-09
1.41221e-07
1.03823e-09
1.40505e-07
9.96259e-10
1.39816e-07
9.56304e-10
1.39151e-07
9.18459e-10
1.3851e-07
8.82776e-10
1.37891e-07
8.49275e-10
1.37293e-07
8.17948e-10
1.36715e-07
7.88756e-10
1.36154e-07
7.61648e-10
1.3561e-07
7.36558e-10
1.35081e-07
7.1341e-10
1.34567e-07
6.92123e-10
1.34065e-07
6.72622e-10
1.33575e-07
6.54828e-10
1.33096e-07
6.38655e-10
1.32627e-07
6.24023e-10
1.32166e-07
6.10847e-10
1.31713e-07
5.99042e-10
1.31266e-07
5.88526e-10
1.30826e-07
5.79219e-10
1.30392e-07
5.71036e-10
1.29961e-07
5.63911e-10
1.29535e-07
5.57767e-10
1.29112e-07
5.52539e-10
1.28692e-07
5.48163e-10
1.28274e-07
5.4458e-10
1.27858e-07
5.41728e-10
1.27443e-07
5.39558e-10
1.27029e-07
5.38015e-10
1.26616e-07
5.37058e-10
1.26202e-07
5.3665e-10
1.25789e-07
5.36763e-10
1.25374e-07
5.37381e-10
1.24959e-07
5.385e-10
1.24542e-07
5.40121e-10
1.24123e-07
5.42256e-10
1.23703e-07
5.44933e-10
1.23279e-07
5.48181e-10
1.22853e-07
5.5206e-10
1.22424e-07
5.56637e-10
1.2199e-07
5.62012e-10
1.21552e-07
5.68304e-10
1.21109e-07
5.75679e-10
1.20659e-07
5.8434e-10
1.20202e-07
5.94551e-10
1.19736e-07
6.06643e-10
1.1926e-07
6.21027e-10
1.18772e-07
6.38234e-10
1.18268e-07
6.5893e-10
1.17747e-07
6.83954e-10
1.17205e-07
7.1438e-10
1.16635e-07
7.51571e-10
1.16033e-07
7.97279e-10
1.15391e-07
8.53761e-10
1.14699e-07
9.2397e-10
1.13945e-07
1.01179e-09
1.13111e-07
1.12246e-09
1.12178e-07
1.26307e-09
1.11115e-07
1.44425e-09
1.09884e-07
1.67996e-09
1.08426e-07
2.00134e-09
1.06652e-07
2.43293e-09
1.04417e-07
3.17625e-09
1.0134e-07
4.22253e-09
7.08786e-09
9.71652e-08
-5.75782e-10
-4.72e-11
-2.46815e-09
1.31439e-09
-5.68714e-09
3.39352e-09
-1.01242e-08
5.63832e-09
-1.56339e-08
7.76266e-09
-2.20786e-08
9.66111e-09
-2.93552e-08
1.13439e-08
-3.7407e-08
1.28842e-08
-4.62227e-08
1.43772e-08
-5.5829e-08
1.59125e-08
-6.62785e-08
1.75596e-08
-7.76387e-08
1.93642e-08
-8.99819e-08
2.13493e-08
-1.03377e-07
2.35206e-08
-1.17885e-07
2.58698e-08
-1.33551e-07
2.83786e-08
-1.50401e-07
3.10201e-08
-1.6844e-07
3.37595e-08
-1.87644e-07
3.65546e-08
-2.0796e-07
3.93553e-08
-2.293e-07
4.21043e-08
-2.51543e-07
4.47375e-08
-2.74532e-07
4.7185e-08
-2.98076e-07
4.93732e-08
-3.21952e-07
5.12267e-08
-3.45909e-07
5.26706e-08
-3.69674e-07
5.36333e-08
-3.92958e-07
5.40494e-08
-4.15462e-07
5.3862e-08
-4.36888e-07
5.30248e-08
-4.56941e-07
5.15046e-08
-4.75342e-07
4.92822e-08
-4.91829e-07
4.63531e-08
-5.06166e-07
4.27286e-08
-5.18144e-07
3.84346e-08
-5.27587e-07
3.3512e-08
-5.34353e-07
2.80152e-08
-5.38333e-07
2.20107e-08
-5.39455e-07
1.55767e-08
-5.37682e-07
8.80175e-09
-5.33014e-07
1.78419e-09
-5.25486e-07
-5.3759e-09
-5.1515e-07
-1.25788e-08
-5.02081e-07
-1.97232e-08
-4.86386e-07
-2.67051e-08
-4.68207e-07
-3.34219e-08
-4.4771e-07
-3.97755e-08
-4.25091e-07
-4.56743e-08
-4.00567e-07
-5.10366e-08
-3.74377e-07
-5.57923e-08
-3.46774e-07
-5.98853e-08
-3.18021e-07
-6.32753e-08
-2.88389e-07
-6.59384e-08
-2.58146e-07
-6.78679e-08
-2.27555e-07
-6.90733e-08
-1.96869e-07
-6.95798e-08
-1.66327e-07
-6.94262e-08
-1.36148e-07
-6.86626e-08
-1.06533e-07
-6.73478e-08
-7.76581e-08
-6.55471e-08
-4.9677e-08
-6.33309e-08
-2.27225e-08
-6.07669e-08
3.08337e-09
-5.79122e-08
2.76483e-08
-5.48321e-08
5.09131e-08
-5.15966e-08
7.28321e-08
-4.82628e-08
9.33771e-08
-4.48833e-08
1.12538e-07
-4.15047e-08
1.30319e-07
-3.81668e-08
1.46738e-07
-3.49033e-08
1.61822e-07
-3.17415e-08
1.75608e-07
-2.87031e-08
1.88143e-07
-2.58047e-08
1.99476e-07
-2.30583e-08
2.09662e-07
-2.04716e-08
2.18762e-07
-1.80492e-08
2.26836e-07
-1.57926e-08
2.33947e-07
-1.37007e-08
2.40158e-07
-1.17709e-08
2.45532e-07
-9.99869e-09
2.50132e-07
-8.37852e-09
2.54018e-07
-6.90396e-09
2.57249e-07
-5.56798e-09
2.59882e-07
-4.36316e-09
2.61973e-07
-3.28183e-09
2.63573e-07
-2.31621e-09
2.64733e-07
-1.45857e-09
2.65498e-07
-7.01667e-10
2.65912e-07
-3.77462e-11
2.66018e-07
5.40035e-10
2.65853e-07
1.03877e-09
2.65453e-07
1.46508e-09
2.64851e-07
1.82535e-09
2.64077e-07
2.1257e-09
2.63158e-07
2.37195e-09
2.6212e-07
2.56959e-09
2.60983e-07
2.72378e-09
2.5977e-07
2.83939e-09
2.58497e-07
2.9209e-09
2.5718e-07
2.97254e-09
2.55833e-07
2.9982e-09
2.54469e-07
3.00147e-09
2.53098e-07
2.98566e-09
2.51729e-07
2.9538e-09
2.50368e-07
2.90865e-09
2.49024e-07
2.85272e-09
2.477e-07
2.78823e-09
2.464e-07
2.71722e-09
2.45128e-07
2.64144e-09
2.43887e-07
2.56245e-09
2.42677e-07
2.48163e-09
2.41499e-07
2.40012e-09
2.40355e-07
2.31893e-09
2.39244e-07
2.23887e-09
2.38165e-07
2.16063e-09
2.37119e-07
2.08477e-09
2.36103e-07
2.0117e-09
2.35118e-07
1.94178e-09
2.34161e-07
1.87525e-09
2.33231e-07
1.81226e-09
2.32328e-07
1.75293e-09
2.31448e-07
1.69729e-09
2.30592e-07
1.64533e-09
2.29757e-07
1.597e-09
2.28941e-07
1.55222e-09
2.28143e-07
1.51088e-09
2.27363e-07
1.47288e-09
2.26597e-07
1.43808e-09
2.25846e-07
1.40635e-09
2.25107e-07
1.37755e-09
2.24379e-07
1.35154e-09
2.23662e-07
1.32817e-09
2.22954e-07
1.3073e-09
2.22253e-07
1.28879e-09
2.2156e-07
1.27248e-09
2.20873e-07
1.25825e-09
2.20191e-07
1.24596e-09
2.19513e-07
1.23548e-09
2.18839e-07
1.22669e-09
2.18168e-07
1.21948e-09
2.17499e-07
1.21375e-09
2.16831e-07
1.20939e-09
2.16164e-07
1.20631e-09
2.15498e-07
1.20441e-09
2.14831e-07
1.20364e-09
2.14164e-07
1.20392e-09
2.13495e-07
1.2052e-09
2.12825e-07
1.20747e-09
2.12153e-07
1.21069e-09
2.11478e-07
1.21488e-09
2.10801e-07
1.22007e-09
2.10119e-07
1.22628e-09
2.09434e-07
1.2336e-09
2.08744e-07
1.24213e-09
2.08048e-07
1.25201e-09
2.07347e-07
1.26343e-09
2.06639e-07
1.27662e-09
2.05922e-07
1.2919e-09
2.05197e-07
1.30967e-09
2.04461e-07
1.33043e-09
2.03713e-07
1.35481e-09
2.0295e-07
1.38364e-09
2.02171e-07
1.41793e-09
2.01371e-07
1.45896e-09
2.00546e-07
1.50838e-09
1.99692e-07
1.56827e-09
1.98803e-07
1.64128e-09
1.97869e-07
1.73085e-09
1.96882e-07
1.84137e-09
1.95827e-07
1.9786e-09
1.94689e-07
2.15015e-09
1.93445e-07
2.36623e-09
1.92067e-07
2.64074e-09
1.90518e-07
2.99375e-09
1.88744e-07
3.45373e-09
1.86675e-07
4.07067e-09
1.84192e-07
4.91499e-09
1.81185e-07
6.1842e-09
1.77201e-07
8.20623e-09
1.1498e-08
1.72791e-07
-1.32655e-09
1.27935e-09
-4.99896e-09
4.9868e-09
-1.06556e-08
9.05015e-09
-1.79448e-08
1.29275e-08
-2.65661e-08
1.6384e-08
-3.62933e-08
1.93883e-08
-4.69797e-08
2.20303e-08
-5.8551e-08
2.44556e-08
-7.09905e-08
2.68167e-08
-8.43205e-08
2.92424e-08
-9.85849e-08
3.1824e-08
-1.13835e-07
3.46141e-08
-1.30117e-07
3.76319e-08
-1.47467e-07
4.08706e-08
-1.65901e-07
4.43036e-08
-1.85412e-07
4.78894e-08
-2.05967e-07
5.15745e-08
-2.27502e-07
5.52945e-08
-2.49922e-07
5.89755e-08
-2.73102e-07
6.25352e-08
-2.96883e-07
6.58847e-08
-3.21076e-07
6.89304e-08
-3.45467e-07
7.15765e-08
-3.69822e-07
7.3728e-08
-3.93889e-07
7.52937e-08
-4.17408e-07
7.61896e-08
-4.40116e-07
7.63411e-08
-4.61753e-07
7.56863e-08
-4.82068e-07
7.41771e-08
-5.00825e-07
7.17816e-08
-5.17804e-07
6.84839e-08
-5.32807e-07
6.42852e-08
-5.45657e-07
5.92033e-08
-5.56201e-07
5.32721e-08
-5.64307e-07
4.65406e-08
-5.69867e-07
3.90721e-08
-5.72794e-07
3.0943e-08
-5.73026e-07
2.22419e-08
-5.70518e-07
1.30691e-08
-5.65253e-07
3.53656e-09
-5.57224e-07
-6.24507e-09
-5.46443e-07
-1.61565e-08
-5.32952e-07
-2.607e-08
-5.16822e-07
-3.58529e-08
-4.98157e-07
-4.53707e-08
-4.77088e-07
-5.44905e-08
-4.53779e-07
-6.30845e-08
-4.2842e-07
-7.1033e-08
-4.01228e-07
-7.82289e-08
-3.7244e-07
-8.45805e-08
-3.4231e-07
-9.00151e-08
-3.11104e-07
-9.44814e-08
-2.79091e-07
-9.79508e-08
-2.46541e-07
-1.00418e-07
-2.13715e-07
-1.019e-07
-1.80859e-07
-1.02435e-07
-1.48206e-07
-1.02079e-07
-1.15967e-07
-1.00902e-07
-8.4329e-08
-9.89857e-08
-5.34558e-08
-9.64202e-08
-2.34905e-08
-9.32962e-08
5.4356e-09
-8.9693e-08
3.32224e-08
-8.5699e-08
5.97993e-08
-8.14091e-08
8.51077e-08
-7.6905e-08
1.09108e-07
-7.22633e-08
1.31777e-07
-6.75525e-08
1.53105e-07
-6.28323e-08
1.73092e-07
-5.81542e-08
1.91751e-07
-5.35618e-08
2.091e-07
-4.90907e-08
2.25167e-07
-4.477e-08
2.39984e-07
-4.06222e-08
2.5359e-07
-3.66641e-08
2.66027e-07
-3.29079e-08
2.77339e-07
-2.93614e-08
2.87575e-07
-2.60287e-08
2.96785e-07
-2.29112e-08
3.05022e-07
-2.00074e-08
3.12338e-07
-1.73143e-08
3.18786e-07
-1.48267e-08
3.24421e-07
-1.25387e-08
3.29296e-07
-1.0443e-08
3.33464e-07
-8.53173e-09
3.36979e-07
-6.7965e-09
3.39891e-07
-5.22852e-09
3.42251e-07
-3.81876e-09
3.44108e-07
-2.55815e-09
3.45507e-07
-1.43738e-09
3.46494e-07
-4.47031e-10
3.47112e-07
4.21545e-10
3.474e-07
1.17706e-09
3.47397e-07
1.82816e-09
3.47139e-07
2.38353e-09
3.4666e-07
2.85145e-09
3.45989e-07
3.23996e-09
3.45156e-07
3.55672e-09
3.44187e-07
3.80905e-09
3.43104e-07
4.00383e-09
3.41929e-07
4.1476e-09
3.4068e-07
4.24646e-09
3.39376e-07
4.30612e-09
3.38029e-07
4.33187e-09
3.36655e-07
4.32862e-09
3.35262e-07
4.30086e-09
3.33862e-07
4.2527e-09
3.32463e-07
4.18785e-09
3.3107e-07
4.10967e-09
3.29691e-07
4.02113e-09
3.28328e-07
3.9249e-09
3.26987e-07
3.82328e-09
3.25668e-07
3.7183e-09
3.24376e-07
3.61168e-09
3.2311e-07
3.50488e-09
3.21871e-07
3.39916e-09
3.2066e-07
3.29553e-09
3.19477e-07
3.1948e-09
3.18321e-07
3.09764e-09
3.17192e-07
3.00456e-09
3.16088e-07
2.91594e-09
3.15009e-07
2.83203e-09
3.13954e-07
2.75302e-09
3.1292e-07
2.67896e-09
3.11907e-07
2.60987e-09
3.10914e-07
2.54572e-09
3.09938e-07
2.48639e-09
3.08979e-07
2.4318e-09
3.08035e-07
2.38177e-09
3.07106e-07
2.33615e-09
3.06188e-07
2.29477e-09
3.05283e-07
2.25744e-09
3.04387e-07
2.22396e-09
3.035e-07
2.19414e-09
3.02621e-07
2.16778e-09