/*--------------------------------*- C++ -*----------------------------------*\
  =========                 |
  \\      /  F ield         | OpenFOAM: The Open Source CFD Toolbox
   \\    /   O peration     | Website:  https://openfoam.org
    \\  /    A nd           | Version:  8
     \\/     M anipulation  |
\*---------------------------------------------------------------------------*/
FoamFile
{
    version     2.0;
    format      ascii;
    class       volVectorField;
    location    "0.18";
    object      U;
}
// * * * * * * * * * * * * * * * * * * * * * * * * * * * * * * * * * * * * * //

dimensions      [0 1 -1 0 0 0 0];

internalField   nonuniform List<vector> 
12225
(
(0.40568 0.0498287 0)
(0.240519 0.0137163 0)
(0.147482 0.00102357 0)
(0.112329 0.000278892 0)
(0.100843 0.000379617 0)
(0.0919457 0.000324243 0)
(0.0849023 0.000228525 0)
(0.0798443 0.000169 0)
(0.0761028 0.000133992 0)
(0.0732456 0.000106591 0)
(0.0710658 8.33676e-05 0)
(0.0694318 6.34111e-05 0)
(0.0682564 4.44403e-05 0)
(0.0674912 2.38371e-05 0)
(0.0671754 -1.404e-05 0)
(0.0673899 -8.4156e-05 0)
(0.0697937 -0.000778535 0)
(0.0721692 -0.00731524 0)
(0.761203 0.132193 0)
(0.610873 0.0699674 0)
(0.442668 0.0225905 0)
(0.347192 0.00964722 0)
(0.30596 0.00571388 0)
(0.279289 0.00426983 0)
(0.258888 0.00327193 0)
(0.243814 0.00250535 0)
(0.232549 0.0019653 0)
(0.223927 0.00155963 0)
(0.217308 0.00122745 0)
(0.212294 0.00093987 0)
(0.208621 0.00067238 0)
(0.206132 0.000391944 0)
(0.20485 2.18048e-05 0)
(0.204826 -0.000684419 0)
(0.207753 -0.00275752 0)
(0.209631 -0.012864 0)
(0.90042 0.155137 0)
(0.857163 0.114955 0)
(0.709279 0.0556691 0)
(0.58527 0.0297704 0)
(0.515773 0.018086 0)
(0.471469 0.0127942 0)
(0.438668 0.00976768 0)
(0.414062 0.00759216 0)
(0.395429 0.00599258 0)
(0.381071 0.00477743 0)
(0.36996 0.00379178 0)
(0.361446 0.00294383 0)
(0.355096 0.00216491 0)
(0.350632 0.00137457 0)
(0.34799 0.000429607 0)
(0.347069 -0.00105303 0)
(0.348848 -0.00413441 0)
(0.349066 -0.0139133 0)
(0.938868 0.139797 0)
(0.983475 0.136 0)
(0.903437 0.0868059 0)
(0.794764 0.0561051 0)
(0.714814 0.0371333 0)
(0.658564 0.0263555 0)
(0.616286 0.020048 0)
(0.584003 0.0157152 0)
(0.559129 0.0125026 0)
(0.539712 0.01003 0)
(0.524497 0.00802428 0)
(0.512665 0.00630459 0)
(0.503652 0.00473882 0)
(0.497072 0.00318915 0)
(0.492738 0.00145392 0)
(0.49036 -0.000900209 0)
(0.490271 -0.00467886 0)
(0.48868 -0.0127857 0)
(0.938806 0.113012 0)
(1.02418 0.136868 0)
(1.01124 0.105693 0)
(0.945349 0.079278 0)
(0.879246 0.0581484 0)
(0.82428 0.0431916 0)
(0.779476 0.0333588 0)
(0.743647 0.0264523 0)
(0.715193 0.0212651 0)
(0.692493 0.0172134 0)
(0.674365 0.0139046 0)
(0.659994 0.0110649 0)
(0.648789 0.00849348 0)
(0.640307 0.00599922 0)
(0.634258 0.00334586 0)
(0.630212 0.000126946 0)
(0.628127 -0.0041626 0)
(0.624825 -0.0108875 0)
(0.929312 0.087264 0)
(1.01881 0.125495 0)
(1.04854 0.110575 0)
(1.02749 0.0927689 0)
(0.990051 0.0748743 0)
(0.950348 0.0592706 0)
(0.912898 0.0474092 0)
(0.880114 0.038432 0)
(0.852548 0.0314002 0)
(0.829691 0.0257464 0)
(0.810885 0.0210503 0)
(0.795577 0.0169867 0)
(0.783312 0.0133062 0)
(0.773698 0.00978367 0)
(0.766419 0.00617758 0)
(0.760996 0.00215394 0)
(0.757244 -0.00255181 0)
(0.752581 -0.00848777 0)
(0.920604 0.0658565 0)
(0.996671 0.108632 0)
(1.0435 0.105129 0)
(1.05357 0.09558 0)
(1.04468 0.0834264 0)
(1.02662 0.0703721 0)
(1.00413 0.0588446 0)
(0.981061 0.049227 0)
(0.959639 0.0411722 0)
(0.940648 0.0343727 0)
(0.924239 0.0285386 0)
(0.910348 0.0233906 0)
(0.89882 0.0186858 0)
(0.889438 0.0142032 0)
(0.881968 0.00972754 0)
(0.875993 0.00501403 0)
(0.871339 -3.43486e-05 0)
(0.865997 -0.00560743 0)
(0.914597 0.0491583 0)
(0.973347 0.0908777 0)
(1.02091 0.0943689 0)
(1.04586 0.0905771 0)
(1.05615 0.0837473 0)
(1.05693 0.0745196 0)
(1.05077 0.0650552 0)
(1.04062 0.0563176 0)
(1.02897 0.0484142 0)
(1.01724 0.041318 0)
(1.00618 0.0349415 0)
(0.996194 0.0291324 0)
(0.98746 0.0237194 0)
(0.980003 0.0185319 0)
(0.973748 0.0134121 0)
(0.968428 0.00820566 0)
(0.963965 0.00292711 0)
(0.958911 -0.00248981 0)
(0.910761 0.0366109 0)
(0.954423 0.0745902 0)
(0.99567 0.0820576 0)
(1.02428 0.0815916 0)
(1.04332 0.0783505 0)
(1.05549 0.0725089 0)
(1.06154 0.0655462 0)
(1.06288 0.0584827 0)
(1.06123 0.0516096 0)
(1.05787 0.0450371 0)
(1.05364 0.0388175 0)
(1.04913 0.032924 0)
(1.04471 0.0272801 0)
(1.0406 0.0217917 0)
(1.03686 0.016375 0)
(1.03341 0.0109589 0)
(1.03026 0.00562621 0)
(1.02652 0.000347513 0)
(0.908336 0.0273597 0)
(0.940527 0.0605176 0)
(0.973954 0.0700957 0)
(1.00088 0.0714505 0)
(1.02178 0.0701835 0)
(1.03838 0.0666216 0)
(1.05081 0.0616858 0)
(1.05945 0.0562565 0)
(1.06514 0.0506594 0)
(1.06867 0.0450205 0)
(1.07065 0.0394298 0)
(1.07156 0.0339259 0)
(1.07176 0.0285015 0)
(1.0715 0.0231284 0)
(1.07093 0.0177877 0)
(1.07006 0.0124734 0)
(1.069 0.00730028 0)
(1.0673 0.00226124 0)
(0.906794 0.0205704 0)
(0.930704 0.0486762 0)
(0.957021 0.0591342 0)
(0.980628 0.0615494 0)
(1.00034 0.0612782 0)
(1.01726 0.059038 0)
(1.03159 0.0554308 0)
(1.04336 0.0511849 0)
(1.05287 0.046636 0)
(1.06054 0.0418986 0)
(1.06668 0.0370481 0)
(1.07156 0.0321361 0)
(1.07542 0.0271851 0)
(1.07845 0.0222042 0)
(1.08077 0.017213 0)
(1.08246 0.0122436 0)
(1.08359 0.00741281 0)
(1.0841 0.0027401 0)
(0.905902 0.0158227 0)
(0.924414 0.0395299 0)
(0.945318 0.0500618 0)
(0.965789 0.0530757 0)
(0.983693 0.0532962 0)
(0.999487 0.0517566 0)
(1.01351 0.0489089 0)
(1.02576 0.0453615 0)
(1.03638 0.0414667 0)
(1.04558 0.0373465 0)
(1.05351 0.0330627 0)
(1.06033 0.0286628 0)
(1.06614 0.0241777 0)
(1.07107 0.0196306 0)
(1.0752 0.0150546 0)
(1.07859 0.0104952 0)
(1.08131 0.00605263 0)
(1.08347 0.00176653 0)
(0.905332 0.0122351 0)
(0.919939 0.0317898 0)
(0.936395 0.0417888 0)
(0.953998 0.0451563 0)
(0.970131 0.0456976 0)
(0.984547 0.0446145 0)
(0.997592 0.0422987 0)
(1.00936 0.0392451 0)
(1.01991 0.0358086 0)
(1.02936 0.0321345 0)
(1.03782 0.0282854 0)
(1.04536 0.0243061 0)
(1.05204 0.0202309 0)
(1.05792 0.016089 0)
(1.06305 0.0119168 0)
(1.06749 0.00776113 0)
(1.07126 0.00369978 0)
(1.07457 -0.000222889 0)
(0.904922 0.00915774 0)
(0.916405 0.0244754 0)
(0.928842 0.0333095 0)
(0.943555 0.0367393 0)
(0.957876 0.0374634 0)
(0.970863 0.0366951 0)
(0.982722 0.0348093 0)
(0.993611 0.0321776 0)
(1.00356 0.0291241 0)
(1.01264 0.025817 0)
(1.0209 0.0223318 0)
(1.02842 0.0187166 0)
(1.03522 0.0150099 0)
(1.04136 0.0112454 0)
(1.04685 0.00745921 0)
(1.05174 0.0036938 0)
(1.05604 1.87545e-06 0)
(1.06 -0.00356983 0)
(0.904635 0.00651903 0)
(0.913785 0.0177428 0)
(0.922862 0.0248589 0)
(0.934845 0.0279497 0)
(0.947391 0.0286664 0)
(0.959036 0.0280563 0)
(0.969748 0.026486 0)
(0.979704 0.0242198 0)
(0.988925 0.0215174 0)
(0.997412 0.0185479 0)
(1.0052 0.0153977 0)
(1.01235 0.0121192 0)
(1.01888 0.0087539 0)
(1.02485 0.00533801 0)
(1.03026 0.00190547 0)
(1.03519 -0.00150915 0)
(1.03962 -0.00487176 0)
(1.04377 -0.0081424 0)
(0.904443 0.00422538 0)
(0.911961 0.0116014 0)
(0.918452 0.0165652 0)
(0.928073 0.0188466 0)
(0.938981 0.0192977 0)
(0.949428 0.0186679 0)
(0.95913 0.0172742 0)
(0.96824 0.0152985 0)
(0.97678 0.0129224 0)
(0.984706 0.0102869 0)
(0.992017 0.00747547 0)
(0.998748 0.00453909 0)
(1.00494 0.00151694 0)
(1.01062 -0.00155741 0)
(1.01583 -0.00465426 0)
(1.02061 -0.00774693 0)
(1.02496 -0.0108131 0)
(1.02907 -0.0138231 0)
(0.904322 0.00216482 0)
(0.910797 0.00590556 0)
(0.915515 0.00840025 0)
(0.923343 0.00940347 0)
(0.932909 0.00927096 0)
(0.942371 0.00841531 0)
(0.951253 0.00704132 0)
(0.959663 0.00525562 0)
(0.96763 0.00316209 0)
(0.975087 0.000852488 0)
(0.981999 -0.00161147 0)
(0.988383 -0.00419014 0)
(0.994273 -0.00685308 0)
(0.999702 -0.00957383 0)
(1.0047 -0.0123295 0)
(1.00931 -0.0151003 0)
(1.01354 -0.017872 0)
(1.01752 -0.0206239 0)
(0.904261 0.000166978 0)
(0.910214 0.000288416 0)
(0.914009 3.49714e-05 0)
(0.920836 -0.000651138 0)
(0.929596 -0.00169135 0)
(0.938435 -0.00298941 0)
(0.946783 -0.0045005 0)
(0.954717 -0.00620178 0)
(0.962276 -0.0080651 0)
(0.969387 -0.0100611 0)
(0.975998 -0.0121668 0)
(0.982116 -0.0143648 0)
(0.98777 -0.0166395 0)
(0.992992 -0.0189758 0)
(0.997809 -0.0213599 0)
(1.00226 -0.0237791 0)
(1.00635 -0.0262243 0)
(1.01019 -0.0286799 0)
(0.90427 -0.00209884 0)
(0.910315 -0.00607471 0)
(0.914268 -0.00948821 0)
(0.921253 -0.0121659 0)
(0.930109 -0.0142985 0)
(0.938969 -0.0161455 0)
(0.94728 -0.017855 0)
(0.955146 -0.0194962 0)
(0.962613 -0.0211209 0)
(0.969615 -0.022773 0)
(0.976107 -0.0244792 0)
(0.982104 -0.0262507 0)
(0.987639 -0.0280897 0)
(0.992748 -0.0299944 0)
(0.997461 -0.0319606 0)
(1.00181 -0.0339817 0)
(1.00583 -0.0360522 0)
(1.00956 -0.0381588 0)
(0.904399 -0.00462706 0)
(0.911503 -0.0131254 0)
(0.917249 -0.0197723 0)
(0.926052 -0.0242415 0)
(0.936227 -0.0272153 0)
(0.945947 -0.0293994 0)
(0.954881 -0.0311249 0)
(0.963224 -0.0325478 0)
(0.971033 -0.0338095 0)
(0.978263 -0.0350288 0)
(0.984912 -0.0362757 0)
(0.991024 -0.0375834 0)
(0.996652 -0.0389679 0)
(1.00184 -0.040437 0)
(1.00662 -0.0419918 0)
(1.01104 -0.0436283 0)
(1.01513 -0.0453412 0)
(1.0189 -0.0471155 0)
(0.904622 -0.00755349 0)
(0.913659 -0.0209745 0)
(0.922532 -0.0304369 0)
(0.934256 -0.035925 0)
(0.946411 -0.0391207 0)
(0.957453 -0.0412238 0)
(0.967438 -0.0426565 0)
(0.976652 -0.0436467 0)
(0.985148 -0.0444319 0)
(0.992919 -0.045185 0)
(1.00002 -0.0459905 0)
(1.00652 -0.046885 0)
(1.01248 -0.047887 0)
(1.01795 -0.0490045 0)
(1.02296 -0.0502364 0)
(1.02755 -0.0515757 0)
(1.03176 -0.0530126 0)
(1.03559 -0.0545317 0)
(0.905068 -0.0115847 0)
(0.917683 -0.0310705 0)
(0.931714 -0.042875 0)
(0.947631 -0.0485142 0)
(0.96241 -0.0514026 0)
(0.975332 -0.0531058 0)
(0.986938 -0.0539972 0)
(0.997485 -0.054395 0)
(1.00697 -0.0546297 0)
(1.01543 -0.0548839 0)
(1.02297 -0.0552218 0)
(1.02965 -0.0556686 0)
(1.03554 -0.0562379 0)
(1.0407 -0.0569331 0)
(1.04518 -0.0577488 0)
(1.04903 -0.0586766 0)
(1.05231 -0.0597027 0)
(1.05504 -0.0608266 0)
(0.905949 -0.0175603 0)
(0.924936 -0.0445518 0)
(0.946899 -0.0576302 0)
(0.968337 -0.0624043 0)
(0.986365 -0.0645738 0)
(1.00163 -0.0655665 0)
(1.01487 -0.0655831 0)
(1.0261 -0.0650791 0)
(1.0353 -0.0644445 0)
(1.04264 -0.0638306 0)
(1.04836 -0.0632837 0)
(1.05264 -0.0628367 0)
(1.05564 -0.0625139 0)
(1.05753 -0.0623255 0)
(1.05844 -0.0622711 0)
(1.05852 -0.062348 0)
(1.05787 -0.0625418 0)
(1.05664 -0.0628777 0)
(0.907688 -0.0267716 0)
(0.937784 -0.0625633 0)
(0.971222 -0.0751124 0)
(0.998793 -0.0779961 0)
(1.01899 -0.078777 0)
(1.03406 -0.0780558 0)
(1.04479 -0.0760461 0)
(1.05132 -0.0735074 0)
(1.05425 -0.0709102 0)
(1.05438 -0.0684151 0)
(1.05236 -0.0661032 0)
(1.04869 -0.0640358 0)
(1.04374 -0.0622415 0)
(1.03785 -0.0607209 0)
(1.03125 -0.0594601 0)
(1.02413 -0.0584417 0)
(1.0166 -0.0576354 0)
(1.00895 -0.0570637 0)
(0.911111 -0.0411075 0)
(0.959652 -0.085753 0)
(1.00624 -0.0949192 0)
(1.03462 -0.0939984 0)
(1.04768 -0.090909 0)
(1.05116 -0.0856866 0)
(1.04752 -0.0793997 0)
(1.03855 -0.073273 0)
(1.02623 -0.0677547 0)
(1.01211 -0.0629213 0)
(0.997123 -0.0587804 0)
(0.981825 -0.0552992 0)
(0.966556 -0.0524074 0)
(0.951527 -0.0500226 0)
(0.936851 -0.048068 0)
(0.922596 -0.0464769 0)
(0.90872 -0.0451866 0)
(0.895512 -0.0441815 0)
(0.918254 -0.0637061 0)
(0.991208 -0.113377 0)
(1.03929 -0.112763 0)
(1.04675 -0.10296 0)
(1.03092 -0.0915249 0)
(1.00558 -0.0792705 0)
(0.976169 -0.0682795 0)
(0.945707 -0.059414 0)
(0.916262 -0.0524206 0)
(0.888752 -0.046905 0)
(0.863336 -0.042567 0)
(0.839901 -0.0391534 0)
(0.818268 -0.0364518 0)
(0.798243 -0.0343 0)
(0.779628 -0.0325786 0)
(0.76226 -0.0311961 0)
(0.745921 -0.0300843 0)
(0.730783 -0.0291992 0)
(0.931094 -0.0983372 0)
(1.01342 -0.139911 0)
(1.02325 -0.116954 0)
(0.975155 -0.0922127 0)
(0.913501 -0.0717867 0)
(0.857072 -0.0557585 0)
(0.807983 -0.0445897 0)
(0.765736 -0.0370443 0)
(0.729651 -0.0317159 0)
(0.698649 -0.0278106 0)
(0.671647 -0.0248934 0)
(0.64781 -0.0226723 0)
(0.626528 -0.0209489 0)
(0.607334 -0.019594 0)
(0.589861 -0.0185198 0)
(0.573834 -0.0176602 0)
(0.558975 -0.016972 0)
(0.545362 -0.0164092 0)
(0.93375 -0.136078 0)
(0.963098 -0.146197 0)
(0.884469 -0.0929888 0)
(0.771451 -0.0580882 0)
(0.683202 -0.0381556 0)
(0.621565 -0.0270288 0)
(0.575051 -0.0210188 0)
(0.537956 -0.0173343 0)
(0.507742 -0.014742 0)
(0.482572 -0.0128538 0)
(0.461104 -0.0114613 0)
(0.442448 -0.0104072 0)
(0.425997 -0.00959131 0)
(0.411304 -0.00895196 0)
(0.398032 -0.00844689 0)
(0.385937 -0.00804202 0)
(0.374786 -0.00771988 0)
(0.364613 -0.00744411 0)
(0.849158 -0.134449 0)
(0.744248 -0.104904 0)
(0.587667 -0.0440988 0)
(0.464261 -0.0198439 0)
(0.398691 -0.01131 0)
(0.359953 -0.00813339 0)
(0.33071 -0.00660244 0)
(0.307375 -0.00547399 0)
(0.288654 -0.00461977 0)
(0.273233 -0.00401645 0)
(0.260164 -0.00358036 0)
(0.24886 -0.00324898 0)
(0.23893 -0.00299173 0)
(0.230087 -0.00279046 0)
(0.222119 -0.00263171 0)
(0.21487 -0.00250325 0)
(0.208198 -0.00240264 0)
(0.202123 -0.00230679 0)
(0.49885 -0.0531715 0)
(0.307526 -0.0231469 0)
(0.200787 -0.00303948 0)
(0.14648 -0.000471141 0)
(0.127175 -0.000536227 0)
(0.115316 -0.000548916 0)
(0.105377 -0.000465351 0)
(0.0974733 -0.000370618 0)
(0.0912374 -0.000308431 0)
(0.0861214 -0.000270159 0)
(0.0817849 -0.000241799 0)
(0.0780364 -0.000219127 0)
(0.0747462 -0.000201362 0)
(0.0718182 -0.000187447 0)
(0.0691804 -0.000176544 0)
(0.0667824 -0.000166826 0)
(0.0645743 -0.000161922 0)
(0.0625717 -0.00014997 0)
(0.00019825 -0.000487792 -1.04434e-20)
(0.000780775 -0.00082756 1.29136e-20)
(0.00138908 -0.000862426 0)
(0.0018332 -0.000782185 0)
(0.00200304 -0.000680191 0)
(0.00189662 -0.00059188 -1.29144e-20)
(0.00155117 -0.000526839 0)
(0.00100429 -0.00048188 0)
(0.00028054 -0.000448432 0)
(-0.000612974 -0.000417228 0)
(-0.00168542 -0.000380632 1.29162e-20)
(-0.00295888 -0.000333306 0)
(-0.00446406 -0.000271985 0)
(-0.00623672 -0.000194843 0)
(-0.00831512 -0.000100817 0)
(-0.0107384 1.09185e-05 1.28094e-20)
(-0.0135455 0.000141281 0)
(-0.0167751 0.000291418 0)
(-0.0204643 0.000462723 0)
(-0.0246487 0.000656751 0)
(-0.029361 0.000875087 0)
(-0.0346301 0.00111917 0)
(-0.0404793 0.00139006 0)
(-0.0469251 0.00168821 1.23471e-20)
(-0.0539748 0.00201314 -1.2254e-20)
(-0.0616247 0.00236314 1.21523e-20)
(-0.0698577 0.00273494 1.20419e-20)
(-0.0786416 0.0031234 0)
(-0.0879273 0.0035213 0)
(-0.0976473 0.00391926 -1.16607e-20)
(-0.107715 0.00430583 -1.15182e-20)
(-0.118024 0.00466778 0)
(-0.12845 0.00499061 0)
(-0.138852 0.00525927 -1.10522e-20)
(-0.149074 0.00545902 0)
(-0.158949 0.00557638 0)
(-0.168304 0.00560009 1.05428e-20)
(-0.176962 0.00552183 0)
(-0.184751 0.00533676 1.01882e-20)
(-0.191508 0.00504344 2.00168e-20)
(-0.197085 0.00464387 0)
(-0.20135 0.00414377 0)
(-0.204195 0.00355372 0)
(-0.205534 0.00289328 0)
(-0.205313 0.00218731 0)
(-0.203532 0.00145708 1.78019e-20)
(-0.200212 0.000722181 1.74292e-20)
(-0.195407 1.81812e-06 1.70644e-20)
(-0.1892 -0.000685735 0)
(-0.181703 -0.00132414 -1.63641e-20)
(-0.173048 -0.00189968 0)
(-0.163387 -0.00240171 1.57126e-20)
(-0.152884 -0.00282289 1.54083e-20)
(-0.141713 -0.00315927 0)
(-0.13005 -0.00341013 0)
(-0.118069 -0.00357769 0)
(-0.105939 -0.0036667 1.43549e-20)
(-0.0938147 -0.00368394 0)
(-0.0818408 -0.00363764 0)
(-0.0701435 -0.00353697 0)
(-0.0588318 -0.0033917 0)
(-0.0479952 -0.00321155 0)
(-0.0377046 -0.00300653 0)
(-0.0280107 -0.00278634 0)
(-0.0189477 -0.00255738 0)
(-0.0105378 -0.00232382 -1.29197e-20)
(-0.00279289 -0.0020906 0)
(0.00428724 -0.00186347 0)
(0.0107192 -0.00164764 1.22305e-20)
(0.016521 -0.00144531 1.2015e-20)
(0.0217198 -0.00125788 0)
(0.0263472 -0.00108607 -1.16486e-20)
(0.0304383 -0.00093003 1.14925e-20)
(0.0340297 -0.000789464 0)
(0.037159 -0.00066376 -1.12227e-20)
(0.0398636 -0.000552084 0)
(0.0421803 -0.000453463 0)
(0.0441445 -0.00036685 1.08968e-20)
(0.0457899 -0.000291175 0)
(0.0471486 -0.000225383 -1.07149e-20)
(0.0482505 -0.000168461 0)
(0.0491233 -0.000119454 1.05508e-20)
(0.0497928 -7.74798e-05 1.04733e-20)
(0.0502828 -4.17651e-05 1.03979e-20)
(0.050615 -1.16671e-05 2.06479e-20)
(0.0508088 1.34117e-05 -2.05022e-20)
(0.0508824 3.46327e-05 0)
(0.0508524 5.22168e-05 0)
(0.0507337 6.64403e-05 0)
(0.0505393 7.77904e-05 -1.99184e-20)
(0.0502814 8.66575e-05 -1.97709e-20)
(0.0499708 9.33409e-05 1.96219e-20)
(0.0496173 9.81149e-05 0)
(0.0492295 0.000101235 -1.93182e-20)
(0.0488152 0.000102935 -1.9163e-20)
(0.0483814 0.000103424 -1.90053e-20)
(0.0479339 0.000102886 0)
(0.0474782 0.000101484 0)
(0.0470188 9.93601e-05 0)
(0.0465598 9.66396e-05 -1.83478e-20)
(0.0461045 9.34334e-05 0)
(0.0456558 8.98393e-05 0)
(0.0452162 8.59446e-05 1.7826e-20)
(0.0447878 8.18263e-05 0)
(0.044372 7.75535e-05 0)
(0.0439704 7.31873e-05 1.72808e-20)
(0.0435837 6.87822e-05 0)
(0.0432127 6.43862e-05 0)
(0.0428579 6.00413e-05 -1.67147e-20)
(0.0425195 5.57834e-05 -1.6522e-20)
(0.0421974 5.16427e-05 0)
(0.0418917 4.76436e-05 1.61311e-20)
(0.0416019 4.38052e-05 0)
(0.0413278 4.01419e-05 -1.5734e-20)
(0.0410688 3.66635e-05 0)
(0.0408244 3.33766e-05 -1.53317e-20)
(0.040594 3.02842e-05 -1.51289e-20)
(0.0403769 2.73872e-05 0)
(0.0401724 2.46839e-05 0)
(0.0399799 2.21704e-05 0)
(0.0397985 1.98409e-05 0)
(0.0396278 1.76875e-05 0)
(0.0394668 1.5701e-05 0)
(0.0393151 1.38718e-05 0)
(0.0391718 1.21903e-05 -1.34822e-20)
(0.0390365 1.06477e-05 1.32748e-20)
(0.0389086 9.23596e-06 0)
(0.0387874 7.94756e-06 0)
(0.0386724 6.77532e-06 0)
(0.0385632 5.71203e-06 0)
(0.0384592 4.75052e-06 2.44752e-20)
(0.0383599 3.88363e-06 0)
(0.038265 3.10442e-06 -2.36478e-20)
(0.038174 2.40617e-06 2.32349e-20)
(0.0380865 1.78245e-06 0)
(0.0380021 1.22723e-06 0)
(0.0379205 7.34964e-07 0)
(0.0378415 3.00113e-07 -2.15914e-20)
(0.0377646 -8.23184e-08 -2.11828e-20)
(0.0376897 -4.17201e-07 0)
(0.0376164 -7.09283e-07 -2.03688e-20)
(0.0375445 -9.63208e-07 -1.99634e-20)
(0.0374738 -1.18326e-06 1.95592e-20)
(0.0374042 -1.37326e-06 0)
(0.0373354 -1.53621e-06 0)
(0.0372672 -1.67435e-06 1.83538e-20)
(0.0371996 -1.78913e-06 0)
(0.0371323 -1.88133e-06 0)
(0.0370652 -1.95146e-06 0)
(0.0369981 -1.99967e-06 0)
(0.036931 -2.02598e-06 -1.63709e-20)
(0.0368635 -2.03027e-06 -1.59784e-20)
(0.0367956 -2.01209e-06 0)
(0.0367271 -1.97031e-06 -1.51977e-20)
(0.0366578 -1.90343e-06 0)
(0.0365873 -1.80892e-06 0)
(0.0365156 -1.68346e-06 -1.40373e-20)
(0.0364422 -1.52234e-06 0)
(0.0363669 -1.31959e-06 -1.3271e-20)
(0.0362891 -1.06749e-06 0)
(0.0362084 -7.56442e-07 0)
(0.036124 -3.74333e-07 -1.21324e-20)
(0.0360354 9.38494e-08 0)
(0.0359414 6.66875e-07 -1.13804e-20)
(0.0358408 1.36784e-06 0)
(0.0357323 2.22571e-06 0)
(0.0356139 3.27676e-06 0)
(0.0354834 4.56661e-06 9.89305e-21)
(0.0353377 6.15291e-06 0)
(0.0351732 8.11067e-06 -9.15696e-21)
(0.0349851 1.05348e-05 0)
(0.0347674 1.35623e-05 0)
(0.0345122 1.73381e-05 0)
(0.0342085 2.22567e-05 0)
(0.0338438 2.81682e-05 0)
(0.0333916 3.8148e-05 0)
(0.0328468 4.41155e-05 0)
(0.0320372 0.000101566 1.24904e-20)
(0.0314775 2.42809e-05 0)
(0.02773 0.000646065 0)
(0.000104629 -0.00130132 3.26851e-20)
(0.000182933 -0.00193502 -4.08894e-20)
(-0.000209717 -0.00142822 0)
(-0.0012369 -0.000440591 2.72067e-20)
(-0.00294248 0.000643717 0)
(-0.00528557 0.00164218 1.35344e-20)
(-0.00819902 0.00250149 -2.69342e-20)
(-0.0116243 0.00324332 -2.68111e-20)
(-0.0155301 0.0039228 0)
(-0.0199159 0.00460077 -2.6527e-20)
(-0.0248091 0.00532861 -1.31986e-20)
(-0.0302577 0.00614275 0)
(-0.0363229 0.00706504 0)
(-0.0430724 0.00810593 0)
(-0.0505754 0.00926811 0)
(-0.058899 0.0105494 -1.26697e-20)
(-0.0681049 0.0119443 0)
(-0.0782468 0.013445 2.47439e-20)
(-0.0893679 0.0150409 0)
(-0.101498 0.016718 0)
(-0.114649 0.0184585 -2.37737e-20)
(-0.128816 0.0202395 0)
(-0.143967 0.022033 2.30574e-20)
(-0.160046 0.0238052 -1.13559e-20)
(-0.176968 0.0255163 1.11653e-20)
(-0.19462 0.0271219 -1.09735e-20)
(-0.212856 0.0285728 -1.07819e-20)
(-0.231501 0.0298173 0)
(-0.250352 0.0308025 0)
(-0.269183 0.0314768 1.02235e-20)
(-0.287746 0.0317921 -1.00698e-20)
(-0.305782 0.0317063 0)
(-0.323023 0.0311857 0)
(-0.339198 0.0302067 9.55712e-21)
(-0.354047 0.0287579 0)
(-0.367318 0.0268408 0)
(-0.378781 0.0244704 -9.13349e-21)
(-0.388231 0.0216751 0)
(-0.395494 0.0184958 8.97059e-21)
(-0.400427 0.0149851 -1.75446e-20)
(-0.402924 0.011206 0)
(-0.402919 0.00723169 0)
(-0.400377 0.00314618 -3.39183e-20)
(-0.39535 -0.000967594 -3.34175e-20)
(-0.387891 -0.00502601 -3.29022e-20)
(-0.378078 -0.00895038 1.62894e-20)
(-0.366029 -0.0126705 -1.5882e-20)
(-0.351891 -0.0161231 -4.71354e-20)
(-0.335839 -0.0192528 3.10468e-20)
(-0.318069 -0.0220143 1.52544e-20)
(-0.2988 -0.024373 0)
(-0.278263 -0.0263062 -1.49097e-20)
(-0.256698 -0.027803 1.48665e-20)
(-0.234351 -0.028864 0)
(-0.211466 -0.0295011 0)
(-0.188282 -0.0297358 0)
(-0.165028 -0.029598 -1.43615e-20)
(-0.141916 -0.0291243 0)
(-0.119143 -0.0283561 2.86038e-20)
(-0.0968845 -0.0273382 0)
(-0.0752956 -0.0261165 2.85592e-20)
(-0.0545073 -0.0247383 0)
(-0.0346246 -0.023249 -2.86318e-20)
(-0.0157345 -0.0216822 0)
(0.00208862 -0.0200676 2.77891e-20)
(0.0187971 -0.0184387 -1.34561e-20)
(0.0343695 -0.0168237 0)
(0.0487939 -0.0152462 -2.53732e-20)
(0.0620767 -0.0137266 -1.23617e-20)
(0.0742372 -0.0122792 -1.20858e-20)
(0.0853055 -0.0109142 0)
(0.0953206 -0.00963825 -1.1644e-20)
(0.104329 -0.00845512 -1.14323e-20)
(0.112381 -0.007366 0)
(0.119532 -0.00637005 1.11075e-20)
(0.125839 -0.00546485 -2.19536e-20)
(0.131361 -0.0046468 0)
(0.136154 -0.00391145 -1.07337e-20)
(0.140276 -0.0032538 0)
(0.143784 -0.00266853 3.16207e-20)
(0.14673 -0.0021502 0)
(0.149167 -0.00169341 -3.11146e-20)
(0.151143 -0.00129288 -1.02929e-20)
(0.152705 -0.000943578 1.02261e-20)
(0.153896 -0.000640793 2.03124e-20)
(0.154757 -0.000380153 -2.01776e-20)
(0.155325 -0.000157071 0)
(0.155636 3.28427e-05 0)
(0.155722 0.000192668 0)
(0.155613 0.00032535 5.89346e-20)
(0.155337 0.000434002 1.95136e-20)
(0.154917 0.000521413 -1.93839e-20)
(0.154377 0.000590066 0)
(0.153737 0.000642235 -1.91242e-20)
(0.153015 0.000680004 1.89895e-20)
(0.152228 0.000705268 1.88547e-20)
(0.151392 0.000719742 0)
(0.150518 0.00072497 0)
(0.149619 0.000722339 0)
(0.148705 0.000713096 1.8291e-20)
(0.147784 0.000698358 0)
(0.146865 0.000679123 -3.59841e-20)
(0.145953 0.000656282 -5.35141e-20)
(0.145055 0.000630625 3.53618e-20)
(0.144174 0.000602852 0)
(0.143315 0.00057358 1.73575e-20)
(0.142479 0.000543347 0)
(0.141671 0.000512622 3.40458e-20)
(0.14089 0.000481807 -1.68511e-20)
(0.140139 0.000451245 -1.66769e-20)
(0.139418 0.000421221 0)
(0.138726 0.000391968 -4.89648e-20)
(0.138065 0.000363671 3.22804e-20)
(0.137433 0.000336476 1.59571e-20)
(0.13683 0.000310487 0)
(0.136255 0.000285781 1.55846e-20)
(0.135707 0.000262404 4.61865e-20)
(0.135186 0.000240381 0)
(0.134689 0.000219716 3.00261e-20)
(0.134215 0.000200397 2.96396e-20)
(0.133764 0.000182394 2.92508e-20)
(0.133334 0.000165668 0)
(0.132923 0.000150167 0)
(0.132531 0.000135833 0)
(0.132156 0.000122606 -1.38375e-20)
(0.131797 0.000110424 -1.3639e-20)
(0.131453 9.92311e-05 0)
(0.131122 8.89696e-05 -2.64785e-20)
(0.130804 7.95855e-05 -2.60775e-20)
(0.130497 7.10253e-05 0)
(0.1302 6.32363e-05 -2.52736e-20)
(0.129913 5.61664e-05 -4.97409e-20)
(0.129635 4.97649e-05 2.44674e-20)
(0.129365 4.39827e-05 2.40633e-20)
(0.129101 3.87727e-05 0)
(0.128844 3.40907e-05 0)
(0.128592 2.98951e-05 0)
(0.128346 2.61469e-05 2.24486e-20)
(0.128103 2.28095e-05 -2.20446e-20)
(0.127865 1.9849e-05 -4.32829e-20)
(0.127629 1.72328e-05 2.12385e-20)
(0.127396 1.49302e-05 -2.08353e-20)
(0.127166 1.2912e-05 -2.04333e-20)
(0.126937 1.11516e-05 0)
(0.12671 9.62606e-06 0)
(0.126483 8.31648e-06 1.92284e-20)
(0.126258 7.20875e-06 0)
(0.126032 6.29363e-06 0)
(0.125807 5.56557e-06 -3.60578e-20)
(0.125581 5.02274e-06 0)
(0.125354 4.66662e-06 -1.72321e-20)
(0.125127 4.50191e-06 1.68351e-20)
(0.124898 4.53755e-06 0)
(0.124666 4.78761e-06 -1.60424e-20)
(0.124433 5.27214e-06 0)
(0.124197 6.019e-06 0)
(0.123957 7.06501e-06 1.48597e-20)
(0.123712 8.45834e-06 -2.89337e-20)
(0.123463 1.02606e-05 1.4075e-20)
(0.123207 1.25501e-05 0)
(0.122944 1.54252e-05 0)
(0.122672 1.90099e-05 -1.29037e-20)
(0.12239 2.34596e-05 0)
(0.122094 2.89695e-05 -1.21269e-20)
(0.121782 3.57848e-05 0)
(0.12145 4.42149e-05 0)
(0.121094 5.46517e-05 0)
(0.120708 6.75939e-05 -1.05831e-20)
(0.120285 8.36815e-05 0)
(0.119816 0.000103745 9.81506e-21)
(0.119289 0.000128872 0)
(0.118689 0.000160532 0)
(0.117996 0.000200689 -1.73319e-20)
(0.117184 0.0002524 1.65671e-20)
(0.11622 0.000319356 0)
(0.11504 0.000411867 0)
(0.113627 0.000533145 0)
(0.11162 0.000769778 -4.05155e-20)
(0.109987 0.00107048 0)
(0.103065 0.00220831 2.4003e-20)
(-3.30241e-05 -0.000933921 -3.36868e-23)
(-0.00109004 -8.88575e-05 5.43302e-20)
(-0.00333325 0.00221639 0)
(-0.00675669 0.0050134 -5.37742e-20)
(-0.0112111 0.00775727 0)
(-0.016554 0.010217 0)
(-0.0226763 0.0123636 3.43202e-23)
(-0.0295078 0.0142802 2.60002e-20)
(-0.0370205 0.0160938 2.57018e-20)
(-0.0452244 0.0179297 2.54609e-20)
(-0.0541584 0.0198875 0)
(-0.0638794 0.0220335 0)
(-0.0744531 0.0244028 -2.44995e-20)
(-0.0859455 0.027006 -4.83179e-20)
(-0.0984169 0.0298359 4.76061e-20)
(-0.111917 0.0328723 0)
(-0.126481 0.0360854 4.61022e-20)
(-0.142125 0.0394365 -2.2683e-20)
(-0.158843 0.0428781 0)
(-0.176603 0.0463537 4.3717e-20)
(-0.195344 0.0497974 2.14624e-20)
(-0.214975 0.0531343 -4.2114e-20)
(-0.235373 0.0562817 -2.06547e-20)
(-0.256383 0.0591504 0)
(-0.277819 0.0616472 3.98294e-20)
(-0.299469 0.0636784 3.9125e-20)
(-0.321098 0.0651531 0)
(-0.34245 0.0659866 3.78301e-20)
(-0.363261 0.0661047 0)
(-0.383259 0.0654465 3.67043e-20)
(-0.402176 0.0639678 1.80028e-20)
(-0.41975 0.061643 0)
(-0.435734 0.058467 0)
(-0.449901 0.0544551 0)
(-0.462046 0.0496434 0)
(-0.471993 0.0440877 0)
(-0.479593 0.0378621 0)
(-0.48473 0.0310566 3.37852e-20)
(-0.487318 0.0237754 -5.01638e-20)
(-0.487303 0.016135 0)
(-0.48466 0.00826057 0)
(-0.479401 0.000281392 0)
(-0.471584 -0.00767507 -3.17432e-22)
(-0.461238 -0.0154842 3.15142e-20)
(-0.448446 -0.0230307 6.24847e-20)
(-0.433318 -0.0302033 -6.16636e-20)
(-0.415989 -0.0368977 -3.05704e-20)
(-0.396621 -0.0430208 2.99436e-20)
(-0.375398 -0.0484928 2.2653e-22)
(-0.352524 -0.0532496 2.95002e-20)
(-0.328222 -0.0572446 0)
(-0.302723 -0.060449 2.89359e-20)
(-0.276271 -0.0628532 1.49311e-22)
(-0.249109 -0.0644655 0)
(-0.221477 -0.0653118 0)
(-0.193613 -0.0654334 -2.82939e-20)
(-0.165738 -0.0648846 0)
(-0.138064 -0.0637306 0)
(-0.110783 -0.0620443 2.83703e-20)
(-0.084067 -0.0599037 5.68059e-20)
(-0.0580716 -0.0573905 -2.84943e-20)
(-0.0329242 -0.0545863 0)
(-0.00873585 -0.0515567 2.82383e-20)
(0.0143809 -0.0483611 0)
(0.0363712 -0.0450669 2.62002e-20)
(0.057174 -0.0417335 2.52386e-20)
(0.0767527 -0.038412 -4.89445e-20)
(0.095088 -0.0351456 -2.37945e-20)
(0.112175 -0.0319705 0)
(0.128022 -0.0289157 4.51931e-20)
(0.142646 -0.0260036 0)
(0.156077 -0.0232503 6.50014e-20)
(0.16835 -0.0206664 4.2575e-20)
(0.179507 -0.0182582 4.18851e-20)
(0.189595 -0.0160278 -4.12675e-20)
(0.198665 -0.0139742 6.10528e-20)
(0.206771 -0.0120938 0)
(0.213969 -0.010381 0)
(0.220314 -0.0088285 -3.93483e-20)
(0.225864 -0.00742829 -5.84444e-20)
(0.230676 -0.00617145 0)
(0.234805 -0.00504873 1.91406e-20)
(0.238305 -0.00405074 0)
(0.241229 -0.00316815 -5.65715e-20)
(0.243628 -0.00239181 1.70134e-23)
(0.245551 -0.00171289 -1.55863e-23)
(0.247045 -0.00112309 3.69504e-20)
(0.248153 -0.000613897 0)
(0.248916 -0.000177805 -3.64598e-20)
(0.249373 0.000191955 1.0766e-23)
(0.249563 0.000501901 0)
(0.249518 0.000758357 0)
(0.249269 0.000967147 0)
(0.248847 0.00113363 3.52239e-20)
(0.248277 0.00126274 0)
(0.247584 0.00135902 0)
(0.246789 0.00142662 0)
(0.245912 0.00146935 0)
(0.244972 0.00149067 0)
(0.243983 0.00149372 3.37429e-20)
(0.24296 0.00148134 0)
(0.241914 0.0014561 3.32132e-20)
(0.240857 0.00142031 3.29427e-20)
(0.239798 0.00137601 -3.26669e-20)
(0.238744 0.00132506 0)
(0.237701 0.00126905 -3.20994e-20)
(0.236676 0.00120943 0)
(0.235672 0.00114742 -3.15105e-20)
(0.234694 0.00108409 3.12083e-20)
(0.233743 0.00102035 9.27054e-20)
(0.232822 0.000956978 0)
(0.231931 0.000894597 9.08184e-20)
(0.231072 0.000833727 2.99524e-20)
(0.230245 0.000774776 0)
(0.22945 0.000718061 5.85933e-20)
(0.228686 0.000663817 5.79267e-20)
(0.227954 0.00061221 -8.58792e-20)
(0.22725 0.000563344 0)
(0.226576 0.000517275 -2.79429e-20)
(0.225929 0.000474015 -2.75968e-20)
(0.225309 0.000433537 -8.17444e-20)
(0.224713 0.000395786 0)
(0.224141 0.000360681 0)
(0.223591 0.000328122 0)
(0.223061 0.000297998 -2.58303e-20)
(0.222551 0.00027019 0)
(0.222059 0.00024458 0)
(0.221583 0.000221047 2.47484e-20)
(0.221123 0.000199473 2.4385e-20)
(0.220676 0.000179739 0)
(0.220243 0.000161732 0)
(0.219821 0.000145335 4.65772e-20)
(0.219409 0.000130439 0)
(0.219007 0.000116935 -4.51074e-20)
(0.218614 0.000104721 -4.43705e-20)
(0.218228 9.36985e-05 0)
(0.217849 8.37759e-05 0)
(0.217476 7.48665e-05 4.21557e-20)
(0.217108 6.68897e-05 2.19259e-25)
(0.216745 5.97705e-05 2.1007e-25)
(0.216385 5.34387e-05 0)
(0.216029 4.78292e-05 7.83936e-20)
(0.215675 4.28812e-05 0)
(0.215323 3.85393e-05 0)
(0.214973 3.47547e-05 0)
(0.214623 3.14863e-05 -3.62375e-20)
(0.214275 2.87014e-05 0)
(0.213926 2.63765e-05 6.95187e-20)
(0.213577 2.44965e-05 3.40211e-20)
(0.213226 2.30548e-05 0)
(0.212875 2.20537e-05 3.25461e-20)
(0.212522 2.15043e-05 0)
(0.212166 2.14288e-05 0)
(0.211807 2.18617e-05 9.10147e-20)
(0.211445 2.28526e-05 -5.92075e-20)
(0.211079 2.44693e-05 0)
(0.210707 2.68017e-05 -5.62744e-20)
(0.210329 2.99658e-05 2.74052e-20)
(0.209945 3.41103e-05 0)
(0.209551 3.94235e-05 0)
(0.209148 4.61424e-05 0)
(0.208732 5.45663e-05 7.34569e-20)
(0.208302 6.50705e-05 0)
(0.207853 7.81279e-05 2.30312e-20)
(0.207384 9.43344e-05 0)
(0.206887 0.000114443 0)
(0.206359 0.000139411 0)
(0.20579 0.000170457 0)
(0.205172 0.00020915 0)
(0.204493 0.000257526 0)
(0.203736 0.000318257 3.59274e-20)
(0.202882 0.000394932 0)
(0.201904 0.000492415 1.65196e-20)
(0.200768 0.000617834 -4.73905e-20)
(0.199429 0.000780999 0)
(0.197807 0.00100115 0)
(0.195879 0.00130015 2.7244e-20)
(0.193214 0.00177519 2.5791e-20)
(0.190942 0.0025054 -2.43036e-20)
(0.183224 0.00396227 -2.29279e-20)
(-0.000178778 0.000900862 -6.51165e-20)
(-0.00241173 0.0052445 -8.09533e-20)
(-0.00653775 0.0106559 -5.3473e-20)
(-0.01235 0.0160805 -2.64151e-20)
(-0.0194857 0.0209989 0)
(-0.0276881 0.0252678 5.16e-20)