/*--------------------------------*- C++ -*----------------------------------*\
  =========                 |
  \\      /  F ield         | OpenFOAM: The Open Source CFD Toolbox
   \\    /   O peration     | Website:  https://openfoam.org
    \\  /    A nd           | Version:  8
     \\/     M anipulation  |
\*---------------------------------------------------------------------------*/
FoamFile
{
    version     2.0;
    format      ascii;
    class       volScalarField;
    location    "0.66";
    object      p;
}
// * * * * * * * * * * * * * * * * * * * * * * * * * * * * * * * * * * * * * //

dimensions      [0 2 -2 0 0 0 0];

internalField   nonuniform List<scalar> 
12225
(
-0.00495264
-0.00492057
-0.00488954
-0.00486622
-0.00485671
-0.00486399
-0.00489087
-0.00494011
-0.00501494
-0.00511953
-0.00525992
-0.00544556
-0.00569236
-0.00602893
-0.00650878
-0.00723482
-0.00849357
-0.0114914
-0.00495242
-0.00492379
-0.00489607
-0.00487583
-0.00486921
-0.00487932
-0.00490903
-0.00496115
-0.00503896
-0.00514666
-0.00529024
-0.00547899
-0.00572803
-0.00606338
-0.00653012
-0.00720781
-0.00825058
-0.0102777
-0.00495346
-0.00492796
-0.0049039
-0.00488718
-0.00488391
-0.00489727
-0.00493019
-0.0049855
-0.00506647
-0.00517725
-0.00532363
-0.00551429
-0.00576273
-0.00609063
-0.00653131
-0.00713321
-0.00792547
-0.00920318
-0.00495602
-0.00493259
-0.00491161
-0.00489809
-0.00489791
-0.00491423
-0.00494999
-0.00500799
-0.00509141
-0.00520417
-0.00535158
-0.00554121
-0.0057841
-0.00609622
-0.00649811
-0.00701072
-0.0076027
-0.00840814
-0.00495995
-0.00493766
-0.00491918
-0.00490851
-0.0049111
-0.00493005
-0.00496823
-0.00502836
-0.00511342
-0.00522695
-0.0053735
-0.00555914
-0.00579185
-0.00608146
-0.00643687
-0.00685911
-0.0072973
-0.00780154
-0.00496498
-0.00494315
-0.00492663
-0.0049185
-0.00492358
-0.00494484
-0.00498504
-0.00504673
-0.00513261
-0.0052457
-0.0053896
-0.00556855
-0.0057873
-0.00604992
-0.00635606
-0.00669402
-0.00701162
-0.00731758
-0.00497083
-0.00494892
-0.00493387
-0.00492793
-0.00493518
-0.0049584
-0.00500016
-0.0050628
-0.00514864
-0.00526008
-0.0053996
-0.00556954
-0.00577152
-0.00600475
-0.00626236
-0.00652602
-0.00675017
-0.00692796
-0.00497715
-0.00495475
-0.00494069
-0.00493659
-0.00494565
-0.00497043
-0.00501325
-0.00507617
-0.0051611
-0.0052697
-0.00540328
-0.00556236
-0.00574578
-0.00594907
-0.00616146
-0.00636256
-0.00651648
-0.00661429
-0.00498347
-0.00496033
-0.00494685
-0.00494422
-0.00495471
-0.00498062
-0.00502396
-0.00508649
-0.00516963
-0.00527431
-0.00540068
-0.00554762
-0.00571174
-0.00588612
-0.00605823
-0.00620871
-0.00631142
-0.00636073
-0.00498922
-0.00496526
-0.00495206
-0.00495055
-0.00496209
-0.00498866
-0.00503199
-0.00509346
-0.00517401
-0.00527384
-0.00539207
-0.00552619
-0.00567125
-0.00581893
-0.00595658
-0.00606749
-0.00613388
-0.00615441
-0.00499378
-0.00496905
-0.00495595
-0.00495526
-0.00496747
-0.00499426
-0.00503702
-0.00509681
-0.00517408
-0.00526835
-0.00537789
-0.00549913
-0.00562614
-0.0057501
-0.00585921
-0.00593999
-0.00598112
-0.00598496
-0.00499627
-0.004971
-0.00495793
-0.00495774
-0.00497025
-0.00499682
-0.0050386
-0.00509633
-0.00517006
-0.00525883
-0.00536026
-0.00547015
-0.00558207
-0.00568732
-0.00577527
-0.00583519
-0.00585995
-0.00585446
-0.00499648
-0.0049715
-0.00495845
-0.00495863
-0.00497124
-0.0049973
-0.00503774
-0.00509302
-0.00516285
-0.00524585
-0.00533917
-0.00543823
-0.00553653
-0.00562584
-0.00569696
-0.00574157
-0.00575554
-0.00574387
-0.00499321
-0.00496947
-0.00495667
-0.00495716
-0.00496963
-0.00499475
-0.00503321
-0.00508522
-0.00515019
-0.0052264
-0.00531071
-0.00539838
-0.00548311
-0.00555747
-0.00561379
-0.00564596
-0.00565185
-0.00563578
-0.00498414
-0.00496281
-0.00495094
-0.00495176
-0.00496379
-0.00498739
-0.00502307
-0.00507084
-0.00512993
-0.0051984
-0.00527304
-0.0053492
-0.00542105
-0.00548208
-0.00552608
-0.00554856
-0.00554832
-0.00552864
-0.00496593
-0.00494868
-0.00493898
-0.00494034
-0.00495161
-0.00497299
-0.00500489
-0.00504728
-0.00509931
-0.00515908
-0.0052235
-0.00528827
-0.00534818
-0.00539763
-0.00543152
-0.00544631
-0.00544084
-0.00541702
-0.00493458
-0.00492366
-0.00491794
-0.00492035
-0.00493052
-0.0049488
-0.00497568
-0.00501121
-0.00505469
-0.00510445
-0.00515774
-0.00521078
-0.00525903
-0.00529767
-0.00532228
-0.00532967
-0.00531814
-0.00528809
-0.00488676
-0.00488469
-0.00488497
-0.004889
-0.00489758
-0.00491159
-0.00493175
-0.00495834
-0.00499097
-0.00502838
-0.00506832
-0.00510761
-0.00514236
-0.00516835
-0.00518159
-0.00517875
-0.00515746
-0.00511687
-0.00482391
-0.00483237
-0.00483955
-0.00484484
-0.00485037
-0.00485776
-0.00486809
-0.00488197
-0.00489944
-0.0049198
-0.00494145
-0.00496196
-0.00497812
-0.00498629
-0.00498277
-0.004964
-0.00492666
-0.00486885
-0.00477662
-0.00479336
-0.00480556
-0.00481093
-0.00481251
-0.00481217
-0.004811
-0.00480964
-0.00480835
-0.00480683
-0.00480411
-0.00479853
-0.00478783
-0.00476931
-0.00474015
-0.00469752
-0.00463831
-0.00455992
-0.00475332
-0.00477415
-0.00478859
-0.00479368
-0.00479268
-0.00478726
-0.00477823
-0.00476607
-0.00475096
-0.0047327
-0.00471059
-0.00468346
-0.00464964
-0.00460717
-0.00455394
-0.00448784
-0.00440636
-0.00430728
-0.00474625
-0.00476844
-0.00478362
-0.00478865
-0.00478642
-0.00477803
-0.00476387
-0.00474412
-0.00471871
-0.00468735
-0.00464943
-0.00460402
-0.00454991
-0.0044857
-0.00440994
-0.00432122
-0.00421784
-0.00409802
-0.00474983
-0.00477162
-0.00478682
-0.00479237
-0.0047903
-0.004781
-0.00476438
-0.00474027
-0.00470831
-0.00466802
-0.00461872
-0.00455959
-0.00448967
-0.00440795
-0.00431347
-0.00420542
-0.00408287
-0.00394478
-0.00475895
-0.00477951
-0.0047947
-0.00480155
-0.00480087
-0.00479235
-0.00477549
-0.00474975
-0.00471452
-0.00466906
-0.00461257
-0.0045442
-0.0044631
-0.00436846
-0.00425966
-0.00413629
-0.00399809
-0.00384474
-0.0047698
-0.00478905
-0.00480472
-0.00481362
-0.0048153
-0.00480881
-0.00479331
-0.004768
-0.00473198
-0.00468433
-0.00462405
-0.00455021
-0.00446192
-0.0043585
-0.00423947
-0.00410467
-0.0039543
-0.00378871
-0.00477989
-0.00479833
-0.00481523
-0.00482686
-0.00483154
-0.00482788
-0.0048148
-0.00479128
-0.00475623
-0.00470851
-0.00464697
-0.00457051
-0.00447819
-0.00436928
-0.00424337
-0.00410043
-0.0039409
-0.0037657
-0.00478783
-0.00480636
-0.00482537
-0.00484024
-0.00484831
-0.00484793
-0.00483788
-0.004817
-0.00478405
-0.00473772
-0.00467668
-0.00459965
-0.00450557
-0.00439364
-0.00426342
-0.00411489
-0.00394861
-0.00376584
-0.00479297
-0.00481283
-0.00483487
-0.00485338
-0.00486509
-0.00486825
-0.00486158
-0.00484387
-0.00481378
-0.00476983
-0.00471051
-0.00463439
-0.00454022
-0.00442708
-0.00429443
-0.00414223
-0.00397099
-0.00378213
-0.00479521
-0.00481776
-0.00484363
-0.00486605
-0.0048815
-0.00488828
-0.00488517
-0.00487095
-0.00484418
-0.00480327
-0.00474654
-0.00467236
-0.00457931
-0.00446629
-0.00433263
-0.00417817
-0.00400336
-0.00380961
-0.00479524
-0.00482103
-0.00485037
-0.00487605
-0.00489455
-0.00490428
-0.00490411
-0.00489282
-0.00486893
-0.00483076
-0.00477648
-0.00470432
-0.0046127
-0.00450036
-0.0043665
-0.00421086
-0.00403378
-0.00383664
0.000269861
0.000290308
0.000297343
0.000278126
0.000231164
0.000157303
5.78153e-05
-6.56087e-05
-0.000211
-0.000376371
-0.000559843
-0.000759887
-0.00097524
-0.00120495
-0.00144832
-0.00170486
-0.00197417
-0.00225578
-0.00254912
-0.00285329
-0.00316703
-0.00348855
-0.00381549
-0.0041448
-0.00447271
-0.00479465
-0.00510528
-0.00539846
-0.0056673
-0.0059042
-0.00610097
-0.00624894
-0.00633918
-0.00636263
-0.00631043
-0.00617414
-0.00594606
-0.00561954
-0.00518928
-0.00465164
-0.00400487
-0.00324937
-0.00238788
-0.00142554
-0.000369869
0.000769536
0.00198009
0.00324745
0.0045555
0.00588651
0.00722163
0.00854133
0.00982576
0.0110552
0.0122105
0.0132732
0.0142262
0.0150537
0.0157414
0.0162769
0.0166497
0.016851
0.0168747
0.0167165
0.0163745
0.0158493
0.0151447
0.0142673
0.0132268
0.0120367
0.0107135
0.00927775
0.00775312
0.00616645
0.00454715
0.00292645
0.0013364
-0.00019163
-0.00162687
-0.00294269
-0.00411603
-0.005129
-0.00596984
-0.00663348
-0.0071216
-0.00744231
-0.00760938
-0.007641
-0.00755843
-0.00738443
-0.00714179
-0.00685204
-0.00653448
-0.00620552
-0.00587848
-0.00556359
-0.0052684
-0.00499816
-0.00475632
-0.00454489
-0.00436465
-0.0042152
-0.00409506
-0.00400167
-0.00393159
-0.00388076
-0.00384484
-0.00381952
-0.00380081
-0.00378522
-0.00376985
-0.00375241
-0.00373118
-0.00370499
-0.00367313
-0.0036353
-0.00359157
-0.00354228
-0.00348802
-0.00342956
-0.00336778
-0.00330362
-0.0032381
-0.00317213
-0.00310658
-0.00304224
-0.00297977
-0.00291971
-0.00286247
-0.00280833
-0.00275745
-0.00270989
-0.00266562
-0.00262453
-0.00258644
-0.00255116
-0.00251842
-0.00248797
-0.00245953
-0.00243284
-0.00240761
-0.00238361
-0.00236059
-0.00233832
-0.0023166
-0.00229526
-0.00227412
-0.00225303
-0.00223188
-0.00221054
-0.00218893
-0.00216696
-0.00214457
-0.0021217
-0.0020983
-0.00207435
-0.00204981
-0.00202468
-0.00199893
-0.00197255
-0.00194555
-0.00191791
-0.00188962
-0.00186068
-0.00183105
-0.00180068
-0.00176951
-0.00173741
-0.00170423
-0.00166981
-0.00163392
-0.00159634
-0.00155675
-0.00151499
-0.00147091
-0.00142447
-0.00137579
-0.00132596
-0.00127833
-0.00121414
0.000274811
0.000296438
0.000303689
0.000285068
0.000241278
0.000174174
8.51523e-05
-2.43795e-05
-0.000152902
-0.000298918
-0.000461123
-0.000638367
-0.000829786
-0.00103477
-0.00125292
-0.00148398
-0.00172774
-0.00198398
-0.00225231
-0.00253211
-0.0028224
-0.00312173
-0.00342812
-0.00373897
-0.00405099
-0.00436013
-0.00466157
-0.00494971
-0.00521813
-0.00545966
-0.00566645
-0.00583009
-0.00594172
-0.00599228
-0.00597268
-0.00587416
-0.00568853
-0.00540849
-0.00502802
-0.00454265
-0.00394976
-0.00324892
-0.00244202
-0.00153337
-0.000529538
0.000560068
0.00172395
0.00294803
0.00421624
0.00551098
0.00681345
0.00810407
0.0093629
0.0105701
0.0117062
0.0127528
0.0136925
0.0145093
0.0151888
0.0157187
0.0160883
0.0162887
0.0163134
0.0161581
0.0158211
0.0153037
0.0146097
0.013746
0.0127227
0.0115533
0.0102549
0.00884823
0.00735728
0.00580917
0.0042335
0.0026615
0.00112509
-0.000344128
-0.00171717
-0.00296812
-0.00407561
-0.00502357
-0.00580228
-0.00640884
-0.00684711
-0.00712709
-0.00726397
-0.00727681
-0.007187
-0.00701672
-0.00678752
-0.00651924
-0.00622914
-0.00593153
-0.0056377
-0.00535613
-0.00509287
-0.00485206
-0.00463639
-0.00444738
-0.00428564
-0.00415083
-0.00404174
-0.00395628
-0.00389157
-0.00384417
-0.00381035
-0.00378637
-0.0037687
-0.00375419
-0.00374017
-0.00372447
-0.00370542
-0.00368181
-0.00365286
-0.00361818
-0.00357773
-0.00353176
-0.00348074
-0.00342536
-0.00336644
-0.00330489
-0.00324163
-0.00317757
-0.00311361
-0.00305051
-0.00298896
-0.00292953
-0.00287264
-0.00281862
-0.00276767
-0.00271986
-0.00267522
-0.00263365
-0.00259501
-0.00255912
-0.00252576
-0.00249467
-0.00246559
-0.00243828
-0.00241246
-0.00238788
-0.00236433
-0.00234156
-0.00231939
-0.00229763
-0.00227611
-0.00225469
-0.00223323
-0.00221163
-0.00218978
-0.00216761
-0.00214504
-0.00212201
-0.00209849
-0.00207443
-0.0020498
-0.00202458
-0.00199877
-0.00197234
-0.00194529
-0.0019176
-0.00188928
-0.00186029
-0.00183061
-0.00180019
-0.00176895
-0.00173681
-0.00170362
-0.00166922
-0.0016334
-0.00159593
-0.00155664
-0.0015153
-0.00147183
-0.00142627
-0.00137881
-0.00133068
-0.00128504
-0.0012237
0.000399136
0.000412453
0.000410942
0.000385548
0.000338078
0.000270877
0.00018547
8.31302e-05
-3.49189e-05
-0.000167546
-0.00031384
-0.000473152
-0.000645109
-0.000829595
-0.00102671
-0.0012367
-0.00145987
-0.0016965
-0.00194672
-0.00221044
-0.00248722
-0.00277617
-0.00307586
-0.00338423
-0.00369851
-0.00401511
-0.00432959
-0.00463661
-0.00492987
-0.00520216
-0.00544543
-0.00565083
-0.00580892
-0.00590986
-0.00594369
-0.0059006
-0.00577134
-0.00554752
-0.00522206
-0.00478951
-0.00424644
-0.00359177
-0.00282685
-0.00195537
-0.000983701
7.86253e-05
0.00121947
0.00242441
0.00367701
0.00495916
0.00625153
0.00753402
0.0087862
0.0099878
0.0111191
0.0121614
0.0130972
0.0139105
0.0145871
0.0151146
0.0154825
0.0156822
0.0157074
0.0155537
0.0152196
0.0147062
0.0140175
0.0131603
0.0121448
0.0109846
0.00969711
0.00830326
0.00682763
0.00529797
0.00374461
0.00219963
0.00069577
-0.000734794
-0.00206207
-0.00325968
-0.00430693
-0.00518884
-0.0058972
-0.00643126
-0.0067976
-0.00700931
-0.00708471
-0.00704565
-0.00691569
-0.00671829
-0.00647526
-0.00620562
-0.00592503
-0.00564556
-0.00537599
-0.00512231
-0.0048883
-0.00467623
-0.00448735
-0.00432227
-0.00418109
-0.00406332
-0.00396791
-0.0038931
-0.00383649
-0.00379517
-0.00376592
-0.00374552
-0.00373085
-0.0037191
-0.00370784
-0.00369503
-0.00367908
-0.00365876
-0.00363326
-0.00360211
-0.00356519
-0.00352265
-0.00347491
-0.00342258
-0.00336642
-0.00330732
-0.00324616
-0.00318388
-0.00312135
-0.00305936
-0.00299861
-0.00293971
-0.0028831
-0.00282915
-0.00277808
-0.00273001
-0.00268498
-0.00264293
-0.00260375
-0.00256727
-0.00253329
-0.00250157
-0.00247187
-0.00244394
-0.00241753
-0.00239239
-0.0023683
-0.00234504
-0.00232241
-0.00230023
-0.00227832
-0.00225655
-0.00223478
-0.0022129
-0.0021908
-0.0021684
-0.00214564
-0.00212245
-0.00209878
-0.00207459
-0.00204986
-0.00202456
-0.00199867
-0.00197217
-0.00194507
-0.00191734
-0.00188897
-0.00185994
-0.00183022
-0.00179976
-0.0017685
-0.00173633
-0.00170314
-0.00166878
-0.00163306
-0.0015958
-0.00155682
-0.00151597
-0.0014732
-0.00142861
-0.00138244
-0.00133596
-0.00129261
-0.00123302
0.000652053
0.000645186
0.000623389
0.000582729
0.000524601
0.000450695
0.000362254
0.000260301
0.000145751
1.92899e-05
-0.00011869
-0.000268116
-0.000429238
-0.000602613
-0.000789053
-0.000989554
-0.0012052
-0.00143708
-0.00168612
-0.00195301
-0.00223808
-0.00254113
-0.00286135
-0.00319716
-0.0035461
-0.00390471
-0.00426844
-0.00463157
-0.00498718
-0.00532716
-0.00564229
-0.00592239
-0.00615649
-0.00633315
-0.00644077
-0.006468
-0.00640412
-0.0062395
-0.00596603
-0.00557756
-0.00507026
-0.00444292
-0.0036968
-0.00283572
-0.00186714
-0.000801847
0.000347096
0.00156423
0.00283199
0.00413119
0.00544143
0.00674167
0.0080107
0.00922762
0.0103723
0.0114259
0.0123707
0.0131909
0.0138726
0.0144038
0.0147743
0.014976
0.0150028
0.0148509
0.0145185
0.0140063
0.0133181
0.0124606
0.0114435
0.0102804
0.00898844
0.00758889
0.00610673
0.00457046
0.00301148
0.00146326
-3.97937e-05
-0.00146371
-0.00277643
-0.00394912
-0.00495907
-0.00579079
-0.00643598
-0.00689465
-0.00717537
-0.00729447
-0.0072745
-0.00714214
-0.00692582
-0.00665326
-0.00634942
-0.006035
-0.00572573
-0.00543238
-0.00516139
-0.00491581
-0.0046964
-0.00450264
-0.0043335
-0.0041879
-0.00406486
-0.00396331
-0.00388197
-0.00381912
-0.00377257
-0.00373965
-0.00371746
-0.00370305
-0.00369358
-0.00368648
-0.00367948
-0.0036707
-0.00365857
-0.00364192
-0.00361992
-0.00359208
-0.00355824
-0.00351852
-0.00347331
-0.0034232
-0.00336897
-0.00331148
-0.00325166
-0.00319043
-0.00312869
-0.00306728
-0.00300691
-0.0029482
-0.00289164
-0.00283761
-0.00278636
-0.00273802
-0.00269265
-0.00265022
-0.00261061
-0.00257369
-0.00253924
-0.00250705
-0.00247689
-0.0024485
-0.00242165
-0.0023961
-0.00237161
-0.00234797
-0.00232499
-0.00230248
-0.00228027
-0.00225822
-0.0022362
-0.00221409
-0.00219179
-0.00216921
-0.00214628
-0.00212295
-0.00209915
-0.00207486
-0.00205003
-0.00202465
-0.00199869
-0.00197214
-0.00194498
-0.0019172
-0.00188879
-0.00185973
-0.00182998
-0.0017995
-0.00176823
-0.00173607
-0.00170292
-0.00166863
-0.00163306
-0.00159603
-0.00155739
-0.00151704
-0.00147494
-0.00143121
-0.00138611
-0.00134087
-0.00129872
-0.0012414
0.00100559
0.000969202
0.000917733
0.000854825
0.000780669
0.00069535
0.000599312
0.000492974
0.000376552
0.000249994
0.000112945
-3.53049e-05
-0.000195828
-0.000370051
-0.0005597
-0.000766727
-0.000993198
-0.00124117
-0.00151254
-0.00180888
-0.00213129
-0.00248019
-0.00285516
-0.00325476
-0.00367637
-0.00411601
-0.00456826
-0.0050262
-0.00548137
-0.00592386
-0.00634246
-0.00672489
-0.00705805
-0.00732849
-0.00752275
-0.00762783
-0.00763172
-0.00752382
-0.00729545
-0.00694024
-0.0064545
-0.00583726
-0.00509023
-0.00421891
-0.00323251
-0.00214273
-0.000964013
0.000286694
0.00159036
0.00292635
0.00427299
0.00560809
0.00690948
0.00815559
0.00932584
0.0104011
0.0113639
0.0121987
0.0128919
0.0134321
0.0138097
0.0140172
0.0140485
0.0139004
0.013571
0.0130606
0.0123729
0.011514
0.010493
0.00932318
0.00802131
0.00660854
0.00511008
0.00355502
0.00197579
0.000407298
-0.00111413
-0.00255222
-0.00387233
-0.00504266
-0.00603688
-0.00683636
-0.00743095
-0.0078196
-0.00801108
-0.00802371
-0.00788387
-0.00762375
-0.00727843
-0.00688261
-0.00646763
-0.0060591
-0.00567563
-0.00532862
-0.00502318
-0.00475956
-0.00453499
-0.00434524
-0.00418596
-0.00405339
-0.00394459
-0.0038573
-0.00378945
-0.00373899
-0.00370359
-0.00368063
-0.00366726
-0.00366066
-0.00365812
-0.0036572
-0.00365574
-0.00365194
-0.00364429
-0.00363166
-0.00361321
-0.00358848
-0.00355731
-0.00351983
-0.00347645
-0.00342781
-0.00337469
-0.00331801
-0.00325875
-0.00319786
-0.0031363
-0.00307491
-0.00301446
-0.00295559
-0.00289881
-0.00284451
-0.00279295
-0.0027443
-0.0026986
-0.00265582
-0.00261587
-0.0025786
-0.00254381
-0.00251129
-0.00248079
-0.00245209
-0.00242493
-0.00239907
-0.0023743
-0.00235039
-0.00232715
-0.0023044
-0.00228197
-0.00225971
-0.00223749
-0.0022152
-0.00219274
-0.00217002
-0.00214696
-0.0021235
-0.0020996
-0.00207521
-0.0020503
-0.00202484
-0.00199882
-0.00197221
-0.001945
-0.00191718
-0.00188874
-0.00185965
-0.00182988
-0.00179939
-0.00176812
-0.001736
-0.00170291
-0.00166875
-0.00163336
-0.00159661
-0.00155835
-0.0015185
-0.00147705
-0.00143411
-0.00138994
-0.00134563
-0.00130389
-0.00124965
0.00142427
0.00135265
0.00126609
0.00117707
0.00108381
0.000984192
0.00087725
0.000762279
0.000638406
0.000504515
0.000359213
0.000200767
2.70727e-05
-0.000164345
-0.000376285
-0.000611773
-0.000873937
-0.00116583
-0.00149026
-0.00184952
-0.00224522
-0.00267797
-0.00314722
-0.003651
-0.00418571
-0.004746
-0.00532472
-0.00591283
-0.00649957
-0.00707254
-0.00761805
-0.00812139
-0.00856725
-0.0089402
-0.00922513
-0.00940781
-0.00947536
-0.00941673
-0.00922315
-0.00888852
-0.00840958
-0.00778607
-0.00702145
-0.00612295
-0.00510082
-0.0039683
-0.00274154
-0.0014392
-8.2018e-05
0.00130773
0.00270686
0.00409184
0.00543943
0.00672724
0.00793421
0.009041
0.0100303
0.0108869
0.0115979
0.0121525
0.0125419
0.0127593
0.0127992
0.0126584
0.012335
0.0118295
0.0111448
0.0102864
0.00926303
0.00808688
0.00677438
0.00534631
0.0038279
0.00224862
0.000641733
-0.000956524
-0.00250801
-0.00397408
-0.00531725
-0.00650288
-0.00750058
-0.00828719
-0.00884873
-0.0091813
-0.0092918
-0.00919829
-0.00892919
-0.00852117
-0.00801609
-0.00745709
-0.00688453
-0.00633233
-0.00582551
-0.00537924
-0.0049995
-0.0046849
-0.00442927
-0.00422415
-0.00406086
-0.00393184
-0.00383116
-0.00375439
-0.0036981
-0.00365928
-0.00363512
-0.00362274
-0.00361915
-0.00362147
-0.00362699
-0.00363328
-0.00363824
-0.00364007
-0.00363731
-0.00362884
-0.00361387
-0.00359194
-0.00356294
-0.00352707
-0.00348479
-0.00343681
-0.00338399
-0.00332732
-0.00326784
-0.00320659
-0.00314456
-0.00308265
-0.00302166
-0.00296226
-0.00290498
-0.0028502
-0.00279822
-0.00274917
-0.00270311
-0.00266001
-0.00261977
-0.00258223
-0.0025472
-0.00251444
-0.00248373
-0.00245482
-0.00242746
-0.00240141
-0.00237645
-0.00235236
-0.00232895
-0.00230603
-0.00228344
-0.00226103
-0.00223868
-0.00221625
-0.00219366
-0.00217082
-0.00214765
-0.0021241
-0.00210011
-0.00207564
-0.00205065
-0.00202513
-0.00199904
-0.00197238
-0.00194513
-0.00191727
-0.00188879
-0.00185967
-0.00182989
-0.00179941
-0.00176817
-0.0017361
-0.00170311
-0.0016691
-0.00163394
-0.0015975
-0.00155966
-0.00152034
-0.00147953
-0.00143735
-0.00139402
-0.00135046
-0.00130869
-0.00125807
0.00186359
0.00175452
0.00163073
0.00151435
0.00140107
0.00128566
0.00116521
0.00103743
0.000899948
0.000750257
0.000585646
0.000403139
0.000199429
-2.91275e-05
-0.000286458
-0.000576658
-0.000903821
-0.00127181
-0.00168401
-0.00214301
-0.00265034
-0.00320616
-0.00380895
-0.00445536
-0.00513998
-0.00585526
-0.00659155
-0.00733714
-0.00807853
-0.00880067
-0.00948731
-0.0101215
-0.010686
-0.0111639
-0.0115387
-0.0117956
-0.0119212
-0.0119044
-0.0117366
-0.0114121
-0.0109285
-0.0102869
-0.00949202
-0.00855243
-0.00747979
-0.00628905
-0.00499817
-0.00362775
-0.00220044
-0.000740373
0.000727492
0.00217806
0.00358678
0.00493025
0.00618675
0.00733668
0.00836282
0.00925042
0.00998722
0.0105633
0.0109707
0.0112035
0.0112571
0.0111282
0.0108155
0.0103191
0.00964135
0.00878711
0.00776423
0.0065842
0.00526274
0.00382015
0.00228154
0.000676603
-0.000960716
-0.00259303
-0.00418056
-0.00568249
-0.00705862
-0.00827118
-0.00928634
-0.0100768
-0.0106232
-0.0109174
-0.0109627
-0.0107748
-0.0103817
-0.00982212
-0.00914316
-0.008396
-0.00763107
-0.0068931
-0.00621694
-0.00562524
-0.00512811
-0.00472488
-0.00440716
-0.00416241
-0.00397706
-0.00383872
-0.00373736
-0.00366535
-0.003617
-0.00358776
-0.0035738
-0.00357164
-0.00357792
-0.0035895
-0.00360354
-0.00361751
-0.00362925
-0.00363694
-0.00363911
-0.00363465
-0.00362279
-0.00360315
-0.00357566
-0.00354062
-0.00349859
-0.00345039
-0.00339699
-0.00333948
-0.003279
-0.00321667
-0.00315354
-0.00309057
-0.00302859
-0.0029683
-0.00291023
-0.00285479
-0.00280224
-0.00275272
-0.00270629
-0.00266289
-0.00262241
-0.00258467
-0.00254948
-0.00251659
-0.00248576
-0.00245675
-0.00242929
-0.00240315
-0.0023781
-0.00235392
-0.00233041
-0.0023074
-0.00228472
-0.00226221
-0.00223976
-0.00221724
-0.00219456
-0.00217163
-0.00214838
-0.00212475
-0.00210068
-0.00207614
-0.00205109
-0.0020255
-0.00199936
-0.00197265
-0.00194535
-0.00191745
-0.00188895
-0.00185981
-0.00183002
-0.00179955
-0.00176835
-0.00173635
-0.00170349
-0.00166967
-0.00163477
-0.00159868
-0.00156129
-0.00152252
-0.00148236
-0.0014409
-0.00139834
-0.00135538
-0.00131337
-0.00126656
0.00227139
0.00212554
0.00196574
0.00182309
0.00169016
0.00155815
0.0014217
0.00127653
0.00111844
0.000943257
0.000746737
0.000524515
0.000271997
-1.56406e-05
-0.000343383
-0.000716221
-0.00113892
-0.00161575
-0.00215014
-0.00274431
-0.00339899
-0.00411303
-0.00488319
-0.00570396
-0.00656742
-0.00746333
-0.00837919
-0.0093005
-0.010211
-0.0110933
-0.0119289
-0.012699
-0.0133849
-0.0139685
-0.0144327
-0.0147619
-0.0149426
-0.0149636
-0.0148167
-0.0144964
-0.0140012
-0.0133334
-0.0124988
-0.011507
-0.0103713
-0.00910844
-0.00773831
-0.00628361
-0.00476918
-0.00322131
-0.00166703
-0.000133328
0.00135359
0.00276902
0.00409037
0.00529757
0.00637338
0.00730346
0.00807628
0.00868282
0.00911628
0.00937165
0.00944526
0.00933441
0.00903792
0.00855583
0.00788978
0.00704409
0.00602577
0.00484543
0.00351805
0.00206343
0.00050645
-0.00112299
-0.00279039
-0.00445732
-0.00608253
-0.00762325
-0.00903683
-0.0102825
-0.0113233
-0.0121281
-0.0126731
-0.0129447
-0.0129418
-0.0126763
-0.0121734
-0.0114714
-0.0106202
-0.00967676
-0.0087009
-0.00774883
-0.00686752
-0.00609036
-0.00543525
-0.00490541
-0.00449251
-0.00418099
-0.00395248
-0.00378918
-0.00367597
-0.003601
-0.00355537
-0.00353229
-0.00352635
-0.00353303
-0.00354836
-0.00356874
-0.00359103
-0.00361248
-0.00363081
-0.00364409
-0.00365081
-0.00364984
-0.00364046
-0.00362233
-0.0035955
-0.00356038
-0.00351767
-0.00346831
-0.00341343
-0.00335423
-0.00329198
-0.00322788
-0.00316305
-0.00309852
-0.00303515
-0.00297365
-0.00291456
-0.00285828
-0.00280506
-0.00275504
-0.00270822
-0.00266454
-0.00262387
-0.00258602
-0.00255075
-0.00251783
-0.00248699
-0.00245796
-0.00243051
-0.00240437
-0.00237931
-0.00235512
-0.00233159
-0.00230855
-0.00228583
-0.00226328
-0.00224077
-0.0022182
-0.00219546
-0.00217247
-0.00214915
-0.00212546
-0.00210133
-0.00207672
-0.00205161
-0.00202597
-0.00199978
-0.00197302
-0.00194567
-0.00191774
-0.00188921
-0.00186005
-0.00183026
-0.00179981
-0.00176866
-0.00173676
-0.00170405
-0.00167043
-0.00163582
-0.00160011
-0.00156319
-0.00152498
-0.00148546
-0.00144469
-0.00140283
-0.00136037
-0.00131797
-0.0012749
0.00259154
0.00241258
0.00222044
0.00205411
0.00190268
0.00175342
0.00159822
0.00143055
0.00124416
0.00103301
0.000791271
0.000513125
0.000192725
-0.000175823
-0.000598345
-0.0010804
-0.001627
-0.00224225
-0.00292898
-0.00368835
-0.00451953
-0.00541942
-0.00638242
-0.00740037
-0.0084626
-0.00955601
-0.0106654
-0.0117736
-0.0128621
-0.0139113
-0.0149012
-0.0158115
-0.0166222
-0.0173143
-0.0178701
-0.0182733
-0.0185102
-0.0185695
-0.0184426
-0.0181244
-0.0176144
-0.0169152
-0.0160335
-0.0149801
-0.0137699
-0.0124216
-0.0109571
-0.0094014
-0.00778186
-0.00612723
-0.00446699
-0.00283044
-0.00124583
0.00026049
0.00166467
0.00294593
0.00408682
0.00507332
0.00589459
0.00654267
0.00701193
0.00729853
0.00739989
0.00731417
0.00704029
0.0065783
0.00592952
0.00509749
0.00408842
0.00291209
0.00158272
0.000119611
-0.00145256
-0.00310375
-0.00479888
-0.00649858
-0.00816022
-0.00973924
-0.0111908
-0.0124714
-0.0135411
-0.0143652
-0.014917
-0.0151771
-0.01514
-0.0148129
-0.0142174
-0.0133892
-0.0123779
-0.0112442
-0.0100547
-0.00887617
-0.00776808
-0.00677667
-0.00593069
-0.00524063
-0.00470109
-0.0042955
-0.00400156
-0.00379606
-0.00365818
-0.00357099
-0.00352151
-0.00349997
-0.00349878
-0.00351196
-0.00353464
-0.00356254
-0.00359207
-0.00362016
-0.00364428
-0.00366237
-0.00367283
-0.00367448
-0.00366665
-0.00364907
-0.0036219
-0.00358569
-0.00354131
-0.00348987
-0.00343263
-0.00337097
-0.00330625
-0.00323977
-0.00317276
-0.00310626
-0.00304117
-0.00297821
-0.00291794
-0.00286071
-0.00280678
-0.00275623
-0.00270905
-0.00266515
-0.00262435
-0.00258646
-0.00255121
-0.00251834
-0.00248757
-0.00245864
-0.00243127
-0.0024052
-0.00238021
-0.00235608
-0.00233259
-0.00230957
-0.00228685
-0.0022643
-0.00224178
-0.00221918
-0.0021964
-0.00217337
-0.00215
-0.00212625
-0.00210207
-0.00207741
-0.00205224
-0.00202655
-0.0020003
-0.00197349
-0.00194611
-0.00191814
-0.00188957
-0.00186041
-0.00183062
-0.0018002
-0.00176911
-0.00173731
-0.00170476
-0.00167137
-0.00163706
-0.00160174
-0.0015653
-0.00152766
-0.00148875
-0.00144861
-0.00140738
-0.00136532
-0.00132245
-0.00128282
0.00276881
0.00256287
0.00234424
0.00215796
0.00198949
0.00182228
0.00164534
0.00144976
0.00122718
0.000969737
0.000669962
0.000320692
-8.50398e-05
-0.000553967
-0.00109244
-0.00170618
-0.00239993
-0.00317706
-0.0040392
-0.00498586
-0.00601416
-0.00711857
-0.00829089
-0.00952023
-0.0107932
-0.0120941
-0.0134052
-0.0147074
-0.01598
-0.0172021
-0.0183518
-0.0194079
-0.0203491
-0.0211556
-0.0218086
-0.0222912
-0.0225889
-0.0226899
-0.0225851
-0.0222691
-0.0217435
-0.0210094
-0.0200747
-0.0189515
-0.0176562
-0.0162094
-0.0146354
-0.0129617
-0.0112183
-0.00943689
-0.00764972
-0.00588888
-0.00418506
-0.00256678
-0.00105951
0.00031491
0.00153857
0.00259755
0.0034817
0.00418411
0.00470047
0.0050283
0.00516623
0.00511344
0.00486933
0.00443404
0.00380865
0.00299589
0.00200131
0.000833863
-0.000492915
-0.00196021
-0.0035435
-0.00521256
-0.00693176
-0.0086608
-0.0103558
-0.0119704
-0.0134578
-0.0147723
-0.0158709
-0.0167158
-0.0172774
-0.0175327
-0.017471
-0.0170955
-0.0164231
-0.0154863
-0.0143328
-0.0130238
-0.0116304
-0.0102273
-0.00888567
-0.00766482
-0.00660623
-0.00573046
-0.00503803
-0.00451382
-0.00413319
-0.00386816
-0.00369216
-0.00358262
-0.0035218
-0.00349623
-0.00349563
-0.00351219
-0.00353973
-0.00357316
-0.00360825
-0.00364152
-0.00367013
-0.00369179
-0.00370477
-0.00370789
-0.00370045
-0.00368228
-0.00365369
-0.00361537
-0.00356837
-0.00351397
-0.00345361
-0.00338881
-0.00332105
-0.00325175
-0.00318217
-0.00311342
-0.00304642
-0.00298188
-0.00292034
-0.00286214
-0.00280749
-0.00275645
-0.00270897
-0.00266491
-0.00262408
-0.00258623
-0.00255109
-0.00251836
-0.00248775
-0.00245898
-0.00243177
-0.00240585
-0.00238099
-0.00235695
-0.00233355
-0.00231059
-0.00228791
-0.00226538
-0.00224286
-0.00222025
-0.00219745
-0.00217438
-0.00215097
-0.00212717
-0.00210294
-0.00207822
-0.002053
-0.00202725
-0.00200095
-0.00197409
-0.00194666
-0.00191865
-0.00189005
-0.00186087
-0.00183109
-0.00180069
-0.00176967
-0.00173798
-0.00170559
-0.00167244
-0.00163844
-0.00160351
-0.00156754
-0.00153043
-0.0014921
-0.00145254
-0.00141184
-0.00137011
-0.00132674
-0.00129007
0.00275532
0.00253053
0.00229288
0.00209109
0.00190729
0.0017214
0.00151974
0.00129113
0.00102517
0.000712249
0.000343441
-8.96101e-05
-0.000594757
-0.00117929
-0.00184972
-0.0026115
-0.00346866
-0.00442338
-0.00547567
-0.00662302
-0.00786024
-0.00917932
-0.0105695
-0.0120173
-0.013507
-0.0150206
-0.0165385
-0.0180396
-0.0195019
-0.0209026
-0.0222189
-0.023428
-0.0245075
-0.0254362
-0.0261942
-0.0267634
-0.0271285
-0.0272765
-0.0271981
-0.0268883
-0.0263452
-0.0255732
-0.0245805
-0.0233801
-0.02199
-0.0204326
-0.0187346
-0.0169263
-0.0150406
-0.0131122
-0.0111769
-0.00926961
-0.00742419
-0.00567169
-0.00403967
-0.00255148
-0.00122582
-7.67214e-05
0.000886193
0.00165707
0.00223299
0.00261299
0.00279714
0.00278582
0.0025792
0.00217761
0.00158198
0.000794515
-0.00017999
-0.00133324
-0.00265235
-0.0041189
-0.00570851
-0.00739071
-0.00912933
-0.0108832
-0.0126071
-0.0142533
-0.015773
-0.0171182
-0.0182436
-0.0191087
-0.0196805
-0.0199341
-0.0198539
-0.0194391
-0.018703
-0.0176742
-0.0163974
-0.0149327
-0.0133529
-0.0117383
-0.0101693
-0.00871726
-0.00743685
-0.00636033
-0.00549661
-0.00483453
-0.00434912
-0.00400887
-0.00378188
-0.00363985
-0.00355984
-0.00352417
-0.00351946
-0.00353566
-0.003565
-0.00360139
-0.00363985
-0.00367637
-0.00370771
-0.00373135
-0.00374539
-0.00374857
-0.00374024
-0.0037203
-0.0036892
-0.00364779
-0.00359731
-0.00353922
-0.00347513
-0.00340669
-0.00333551
-0.00326309
-0.00319075
-0.00311963
-0.00305065
-0.00298452
-0.00292174
-0.00286264
-0.00280736
-0.00275592
-0.00270823
-0.00266413
-0.00262336
-0.00258564
-0.00255069
-0.00251818
-0.00248781
-0.00245926
-0.00243226
-0.00240653
-0.00238183
-0.00235793
-0.00233463
-0.00231176
-0.00228914
-0.00226663
-0.00224412
-0.0022215
-0.00219868
-0.00217557
-0.00215212
-0.00212827
-0.00210397
-0.0020792
-0.00205391
-0.00202809
-0.00200173
-0.00197481
-0.00194733
-0.00191927
-0.00189064
-0.00186144
-0.00183166
-0.00180129
-0.00177033