/*--------------------------------*- C++ -*----------------------------------*\
  =========                 |
  \\      /  F ield         | OpenFOAM: The Open Source CFD Toolbox
   \\    /   O peration     | Website:  https://openfoam.org
    \\  /    A nd           | Version:  8
     \\/     M anipulation  |
\*---------------------------------------------------------------------------*/
FoamFile
{
    version     2.0;
    format      ascii;
    class       surfaceScalarField;
    location    "0.66";
    object      phi;
}
// * * * * * * * * * * * * * * * * * * * * * * * * * * * * * * * * * * * * * //

dimensions      [0 3 -1 0 0 0 0];

internalField   nonuniform List<scalar> 
24170
(
-2.5176e-12
2.5176e-12
5.33861e-12
-7.85621e-12
2.24528e-11
-1.71142e-11
4.71336e-11
-2.46808e-11
7.81931e-11
-3.10595e-11
1.14955e-10
-3.67621e-11
1.57037e-10
-4.20823e-11
2.04272e-10
-4.72346e-11
2.56701e-10
-5.24286e-11
3.14635e-10
-5.79344e-11
3.78752e-10
-6.41168e-11
4.5019e-10
-7.14378e-11
5.30549e-10
-8.03594e-11
6.21283e-10
-9.0734e-11
7.19449e-10
-9.81662e-11
7.92325e-10
-7.28755e-11
7.22092e-10
7.02328e-11
1.81741e-09
-1.09532e-09
-2.33587e-12
4.85347e-12
2.42293e-11
-3.44214e-11
7.89678e-11
-7.18527e-11
1.5691e-10
-1.02623e-10
2.54617e-10
-1.28766e-10
3.69878e-10
-1.52023e-10
5.01311e-10
-1.73515e-10
6.48075e-10
-1.93999e-10
8.09802e-10
-2.14155e-10
9.86616e-10
-2.34749e-10
1.17911e-09
-2.56613e-10
1.38798e-09
-2.8031e-10
1.61257e-09
-3.04941e-10
1.84586e-09
-3.24029e-10
2.05749e-09
-3.09798e-10
2.13672e-09
-1.52104e-10
1.65423e-09
5.52726e-10
4.06434e-09
-5.92702e-10
2.67019e-12
2.18328e-12
5.32264e-11
-8.49776e-11
1.51762e-10
-1.70388e-10
2.90419e-10
-2.41281e-10
4.63453e-10
-3.018e-10
6.66871e-10
-3.55441e-10
8.97919e-10
-4.04563e-10
1.15458e-09
-4.50664e-10
1.43536e-09
-4.9493e-10
1.73904e-09
-5.38431e-10
2.0642e-09
-5.81777e-10
2.40767e-09
-6.23779e-10
2.76027e-09
-6.57541e-10
3.09554e-09
-6.59294e-10
3.33954e-09
-5.53799e-10
3.29314e-09
-1.05703e-10
2.42424e-09
1.42163e-09
6.39066e-09
9.79229e-11
1.23647e-11
-1.01814e-11
9.31227e-11
-1.65736e-10
2.42146e-10
-3.19411e-10
4.49169e-10
-4.48304e-10
7.06084e-10
-5.58715e-10
1.00686e-09
-6.56216e-10
1.34692e-09
-7.44622e-10
1.72242e-09
-8.26162e-10
2.12974e-09
-9.02251e-10
2.56485e-09
-9.73543e-10
3.02194e-09
-1.03887e-09
3.49018e-09
-1.09202e-09
3.94623e-09
-1.11359e-09
4.33724e-09
-1.0503e-09
4.54425e-09
-7.60806e-10
4.31464e-09
1.23905e-10
3.1832e-09
2.55307e-09
8.664e-09
9.09857e-10
2.68469e-11
-3.70284e-11
1.44436e-10
-2.83324e-10
3.50949e-10
-5.25924e-10
6.33892e-10
-7.31247e-10
9.8274e-10
-9.07563e-10
1.38914e-09
-1.06261e-09
1.84615e-09
-1.20163e-09
2.3473e-09
-1.32732e-09
2.8857e-09
-1.44065e-09
3.45275e-09
-1.5406e-09
4.03578e-09
-1.6219e-09
4.61296e-09
-1.66921e-09
5.14314e-09
-1.64377e-09
5.54631e-09
-1.45347e-09
5.67063e-09
-8.85132e-10
5.25637e-09
5.38164e-10
3.97175e-09
3.83769e-09
1.07828e-08
1.853e-09
4.59468e-11
-8.29752e-11
2.07194e-10
-4.44572e-10
4.78177e-10
-7.96907e-10
8.4411e-10
-1.09718e-09
1.29195e-09
-1.3554e-09
1.8107e-09
-1.58136e-09
2.39048e-09
-1.78141e-09
3.02128e-09
-1.95812e-09
3.69164e-09
-2.11101e-09
4.38669e-09
-2.23565e-09
5.08469e-09
-2.3199e-09
5.7506e-09
-2.33512e-09
6.32476e-09
-2.21793e-09
6.705e-09
-1.8337e-09
6.72559e-09
-9.05719e-10
6.15742e-09
1.10634e-09
4.81321e-09
5.1819e-09
1.269e-08
2.90594e-09
6.92871e-11
-1.52262e-10
2.80771e-10
-6.56056e-10
6.22718e-10
-1.13885e-09
1.0777e-09
-1.55217e-09
1.63e-09
-1.9077e-09
2.26562e-09
-2.21698e-09
2.97112e-09
-2.48691e-09
3.73205e-09
-2.71904e-09
4.53114e-09
-2.9101e-09
5.34574e-09
-3.05025e-09
6.14358e-09
-3.11774e-09
6.87587e-09
-3.0674e-09
7.46684e-09
-2.8089e-09
7.80131e-09
-2.16818e-09
7.71932e-09
-8.2373e-10
7.04625e-09
1.77942e-09
5.7233e-09
6.50484e-09
1.43501e-08
4.0632e-09
9.62135e-11
-2.48476e-10
3.63706e-10
-9.23548e-10
7.82009e-10
-1.55716e-09
1.33044e-09
-2.1006e-09
1.99032e-09
-2.56758e-09
2.74435e-09
-2.97101e-09
3.57494e-09
-3.3175e-09
4.46237e-09
-3.60646e-09
5.38255e-09
-3.83028e-09
6.30409e-09
-3.97179e-09
7.18382e-09
-3.99747e-09
7.9605e-09
-3.84408e-09
8.54732e-09
-3.39572e-09
8.82711e-09
-2.44797e-09
8.66206e-09
-6.58683e-10
7.94227e-09
2.49921e-09
6.71001e-09
7.7371e-09
1.57388e-08
5.32129e-09
1.25753e-10
-3.74229e-10
4.5354e-10
-1.25134e-09
9.51688e-10
-2.0553e-09
1.59543e-09
-2.74434e-09
2.36286e-09
-3.33501e-09
3.23304e-09
-3.84119e-09
4.18378e-09
-4.26824e-09
5.18949e-09
-4.61218e-09
6.21874e-09
-4.85953e-09
7.23119e-09
-4.98424e-09
8.17365e-09
-4.93993e-09
8.97553e-09
-4.64597e-09
9.54565e-09
-3.96584e-09
9.77557e-09
-2.67789e-09
9.56066e-09
-4.4377e-10
8.85504e-09
3.20482e-09
7.77253e-09
8.81961e-09
1.68368e-08
6.67455e-09
1.56565e-10
-5.30794e-10
5.46646e-10
-1.64142e-09
1.12525e-09
-2.6339e-09
1.86266e-09
-3.48176e-09
2.73343e-09
-4.20577e-09
3.71279e-09
-4.82055e-09
4.77374e-09
-5.3292e-09
5.88466e-09
-5.7231e-09
7.00681e-09
-5.98168e-09
8.09167e-09
-6.0691e-09
9.07818e-09
-5.92643e-09
9.89079e-09
-5.45858e-09
1.04411e-08
-4.51613e-09
1.0638e-08
-2.8748e-09
1.04153e-08
-2.21034e-10
9.78318e-09
3.8369e-09
8.90068e-09
9.70211e-09
1.76258e-08
8.11172e-09
1.87086e-10
-7.1788e-10
6.38104e-10
-2.09243e-09
1.29371e-09
-3.28951e-09
2.11845e-09
-4.3065e-09
3.08308e-09
-5.1704e-09
4.15902e-09
-5.89649e-09
5.31464e-09
-6.48481e-09
6.51261e-09
-6.92107e-09
7.70773e-09
-7.17681e-09
8.84505e-09
-7.20642e-09
9.85879e-09
-6.94017e-09
1.06735e-08
-6.27325e-09
1.12098e-08
-5.05248e-09
1.13999e-08
-3.06488e-09
1.12158e-08
-3.69284e-11
1.07125e-08
4.34015e-09
1.00731e-08
1.03416e-08
1.80866e-08
9.61225e-09
1.80431e-10
-8.98311e-10
6.03568e-10
-2.51557e-09
1.2101e-09
-3.89605e-09
1.96482e-09
-5.06122e-09
2.83999e-09
-6.04556e-09
3.80881e-09
-6.86532e-09
4.84147e-09
-7.51747e-09
5.90283e-09
-7.98242e-09
6.95097e-09
-8.22495e-09
7.93649e-09
-8.19194e-09
8.80311e-09
-7.8068e-09
9.49086e-09
-6.96099e-09
9.94364e-09
-5.50526e-09
1.01237e-08
-3.24493e-09
1.00341e-08
5.26484e-11
9.74639e-09
4.62787e-09
9.4214e-09
1.06666e-08
1.82075e-08
9.3005e-09
2.26866e-10
-1.12518e-09
7.5293e-10
-3.04164e-09
1.49623e-09
-4.63935e-09
2.4117e-09
-5.97669e-09
3.46473e-09
-7.09859e-09
4.62215e-09
-8.02274e-09
5.84714e-09
-8.74246e-09
7.09664e-09
-9.23193e-09
8.3202e-09
-9.44851e-09
9.46031e-09
-9.33205e-09
1.04548e-08
-8.80131e-09
1.12427e-08
-7.74889e-09
1.17747e-08
-6.03721e-09
1.20296e-08
-3.4999e-09
1.20367e-08
4.55628e-11
1.1897e-08
4.76756e-09
1.17937e-08
1.07699e-08
1.80299e-08
1.19713e-08
2.7526e-10
-1.40044e-09
9.0831e-10
-3.67469e-09
1.79066e-09
-5.5217e-09
2.86584e-09
-7.05187e-09
4.09209e-09
-8.32484e-09
5.43e-09
-9.36064e-09
6.83627e-09
-1.01487e-08
8.26093e-09
-1.06566e-08
9.64683e-09
-1.08344e-08
1.09315e-08
-1.06167e-08
1.20515e-08
-9.9214e-09
1.29514e-08
-8.64878e-09
1.35959e-08
-6.68165e-09
1.39869e-08
-3.89096e-09
1.41826e-08
-1.50103e-10
1.43109e-08
4.6393e-09
1.45688e-08
1.0512e-08
1.74024e-08
1.51962e-08
3.15086e-10
-1.71552e-09
1.03421e-09
-4.39381e-09
2.02457e-09
-6.51206e-09
3.21874e-09
-8.24604e-09
4.5695e-09
-9.6756e-09
6.03343e-09
-1.08246e-08
7.5638e-09
-1.16791e-08
9.10777e-09
-1.22005e-08
1.06067e-08
-1.23334e-08
1.19996e-08
-1.20096e-08
1.32299e-08
-1.11517e-08
1.42553e-08
-9.67419e-09
1.50616e-08
-7.48798e-09
1.56777e-08
-4.50698e-09
1.61884e-08
-6.60857e-10
1.6741e-08
4.08671e-09
1.75357e-08
9.71728e-09
1.61395e-08
1.87986e-08
3.24427e-10
-2.03995e-09
1.05895e-09
-5.12833e-09
2.05989e-09
-7.51301e-09
3.25539e-09
-9.44153e-09
4.59851e-09
-1.10187e-08
6.04821e-09
-1.22743e-08
7.56173e-09
-1.31926e-08
9.09207e-09
-1.37309e-08
1.05891e-08
-1.38304e-08
1.20041e-08
-1.34246e-08
1.32973e-08
-1.24449e-08
1.44486e-08
-1.08255e-08
1.54693e-08
-8.50862e-09
1.64135e-08
-5.45122e-09
1.73859e-08
-1.63324e-09
1.85404e-08
2.93221e-09
2.00679e-08
8.18981e-09
1.40362e-08
2.21712e-08
2.64725e-10
-2.30468e-09
8.57061e-10
-5.72067e-09
1.65579e-09
-8.31173e-09
2.60255e-09
-1.03883e-08
3.66359e-09
-1.20798e-08
4.81264e-09
-1.34233e-08
6.02433e-09
-1.44043e-08
7.27218e-09
-1.49787e-08
8.52993e-09
-1.50881e-08
9.77581e-09
-1.46705e-08
1.09994e-08
-1.36685e-08
1.22102e-08
-1.20363e-08
1.34465e-08
-9.74492e-09
1.47821e-08
-6.78677e-09
1.63288e-08
-3.17993e-09
1.82324e-08
1.02864e-09
2.06603e-08
5.76191e-09
1.09145e-08
2.3782e-08
7.79986e-11
-2.38268e-09
2.42896e-10
-5.88557e-09
4.57954e-10
-8.52679e-09
7.11481e-10
-1.06418e-08
1.00418e-09
-1.23725e-08
1.34306e-09
-1.37622e-08
1.73885e-09
-1.48001e-08
2.20509e-09
-1.5445e-08
2.75889e-09
-1.56419e-08
3.42334e-09
-1.53349e-08
4.23142e-09
-1.44766e-08
5.23066e-09
-1.30356e-08
6.48743e-09
-1.10017e-08
8.08939e-09
-8.38874e-09
1.01447e-08
-5.23528e-09
1.27772e-08
-1.60382e-09
1.61171e-08
2.42204e-09
6.74195e-09
2.02896e-08
-2.98506e-10
-2.08417e-09
-9.72296e-10
-5.21178e-09
-1.88929e-09
-7.6098e-09
-2.97429e-09
-9.55681e-09
-4.16908e-09
-1.11777e-08
-5.41541e-09
-1.25159e-08
-6.649e-09
-1.35665e-08
-7.79792e-09
-1.42961e-08
-8.78272e-09
-1.46571e-08
-9.51705e-09
-1.46006e-08
-9.90838e-09
-1.40852e-08
-9.85873e-09
-1.30852e-08
-9.26563e-09
-1.15948e-08
-8.02387e-09
-9.6305e-09
-6.0285e-09
-7.23065e-09
-3.17929e-09
-4.45304e-09
6.13808e-10
-1.37105e-09
1.93083e-09
5.42493e-09
-4.34565e-10
-1.6496e-09
-1.41556e-09
-4.23078e-09
-2.75723e-09
-6.26813e-09
-4.36391e-09
-7.95013e-09
-6.16981e-09
-9.37177e-09
-8.11376e-09
-1.05719e-08
-1.01294e-08
-1.15509e-08
-1.21416e-08
-1.22838e-08
-1.40668e-08
-1.27319e-08
-1.58143e-08
-1.28531e-08
-1.72892e-08
-1.26103e-08
-1.8396e-08
-1.19784e-08
-1.90418e-08
-1.09489e-08
-1.91403e-08
-9.532e-09
-1.86146e-08
-7.75636e-09
-1.74004e-08
-5.66728e-09
-1.54482e-08
-3.32324e-09
-7.91571e-10
-1.27258e-08
-4.61583e-10
-1.18802e-09
-1.51163e-09
-3.18073e-09
-2.96327e-09
-4.81649e-09
-4.72392e-09
-6.18948e-09
-6.73184e-09
-7.36386e-09
-8.93094e-09
-8.37282e-09
-1.12606e-08
-9.22129e-09
-1.36513e-08
-9.89304e-09
-1.60244e-08
-1.03588e-08
-1.82931e-08
-1.05845e-08
-2.03653e-08
-1.05381e-08
-2.21479e-08
-1.01959e-08
-2.35504e-08
-9.54641e-09
-2.44895e-08
-8.59291e-09
-2.48925e-08
-7.35332e-09
-2.47007e-08
-5.8591e-09
-2.38712e-08
-4.15277e-09
-2.285e-09
-2.23777e-08
-4.07094e-10
-7.80928e-10
-1.35055e-09
-2.23727e-09
-2.67761e-09
-3.48943e-09
-4.31279e-09
-4.5543e-09
-6.20514e-09
-5.4715e-09
-8.30888e-09
-6.26908e-09
-1.05749e-08
-6.95528e-09
-1.29467e-08
-7.52126e-09
-1.5359e-08
-7.94657e-09
-1.77383e-08
-8.20518e-09
-2.00051e-08
-8.27126e-09
-2.2077e-08
-8.1239e-09
-2.38727e-08
-7.75071e-09
-2.53158e-08
-7.14984e-09
-2.63386e-08
-6.33057e-09
-2.68851e-08
-5.31259e-09
-2.69134e-08
-4.12445e-09
-2.80192e-09
-2.63965e-08
-3.17162e-10
-4.63765e-10
-1.07692e-09
-1.47752e-09
-2.17276e-09
-2.39359e-09
-3.54861e-09
-3.17844e-09
-5.16443e-09
-3.85568e-09
-6.98466e-09
-4.44885e-09
-8.9721e-09
-4.96784e-09
-1.10842e-08
-5.40914e-09
-1.32713e-08
-5.75948e-09
-1.54762e-08
-6.00026e-09
-1.76356e-08
-6.11187e-09
-1.96821e-08
-6.07737e-09
-2.15476e-08
-5.88524e-09
-2.31663e-08
-5.53114e-09
-2.44783e-08
-5.01858e-09
-2.54322e-08
-4.35867e-09
-2.59875e-08
-3.56913e-09
-2.6736e-09
-2.61159e-08
-2.22287e-10
-2.41478e-10
-7.85894e-10
-9.13913e-10
-1.62757e-09
-1.55191e-09
-2.70721e-09
-2.09881e-09
-3.99352e-09
-2.56938e-09
-5.45942e-09
-2.98295e-09
-7.0779e-09
-3.34936e-09
-8.81874e-09
-3.6683e-09
-1.06464e-08
-3.93178e-09
-1.25194e-08
-4.1273e-09
-1.43903e-08
-4.24098e-09
-1.62075e-08
-4.26013e-09
-1.79174e-08
-4.17533e-09
-1.94669e-08
-3.98169e-09
-2.08059e-08
-3.67958e-09
-2.189e-08
-3.27452e-09
-2.26825e-08
-2.77664e-09
-2.20041e-09
-2.31557e-08
-1.39267e-10
-1.02211e-10
-5.2877e-10
-5.24411e-10
-1.1382e-09
-9.42476e-10
-1.93856e-09
-1.29845e-09
-2.9052e-09
-1.60273e-09
-4.01777e-09
-1.87038e-09
-5.25731e-09
-2.10982e-09
-6.60344e-09
-2.32217e-09
-8.03222e-09
-2.503e-09
-9.51504e-09
-2.64449e-09
-1.10185e-08
-2.73749e-09
-1.25053e-08
-2.77331e-09
-1.39356e-08
-2.74505e-09
-1.52688e-08
-2.64849e-09
-1.64657e-08
-2.48267e-09
-1.74904e-08
-2.24988e-09
-1.83116e-08
-1.95541e-09
-1.6073e-09
-1.89047e-08
-7.5223e-11
-2.69879e-11
-3.26245e-10
-2.73389e-10
-7.43586e-10
-5.25136e-10
-1.30541e-09
-7.36624e-10
-1.99242e-09
-9.15731e-10
-2.78964e-09
-1.07316e-09
-3.68435e-09
-1.21511e-09
-4.66352e-09
-1.343e-09
-5.71193e-09
-1.45458e-09
-6.81106e-09
-1.54537e-09
-7.93866e-09
-1.60988e-09
-9.06922e-09
-1.64275e-09
-1.01748e-08
-1.63948e-09
-1.12262e-08
-1.59706e-09
-1.21946e-08
-1.51427e-09
-1.30527e-08
-1.3918e-09
-1.3776e-08
-1.23211e-09
-1.03911e-09
-1.43442e-08
-3.13493e-11
4.36143e-12
-1.80777e-10
-1.23961e-10
-4.48987e-10
-2.56926e-10
-8.19109e-10
-3.66503e-10
-1.27656e-09
-4.58284e-10
-1.81088e-09
-5.38837e-10
-2.414e-09
-6.11992e-10
-3.07819e-09
-6.78812e-10
-3.79447e-09
-7.38308e-10
-4.55161e-09
-7.88221e-10
-5.3358e-09
-8.25695e-10
-6.13071e-09
-8.47843e-10
-6.91803e-09
-8.52167e-10
-7.67822e-09
-8.36868e-10
-8.39146e-09
-8.01029e-10
-9.03857e-09
-7.44693e-10
-9.60187e-09
-6.68816e-10
-5.74979e-10
-1.0066e-08
-5.73153e-12
1.0093e-11
-8.55356e-11
-4.41566e-11
-2.42945e-10
-9.95165e-11
-4.65307e-10
-1.44141e-10
-7.42526e-10
-1.81065e-10
-1.06794e-09
-2.13422e-10
-1.43692e-09
-2.43016e-10
-1.84533e-09
-2.70399e-10
-2.28841e-09
-2.95226e-10
-2.76004e-09
-3.16596e-10
-3.2524e-09
-3.33335e-10
-3.75601e-09
-3.44227e-10
-4.25999e-09
-3.48189e-10
-4.75246e-09
-3.44401e-10
-5.2211e-09
-3.32382e-10
-5.65377e-09
-3.12027e-10
-6.03899e-09
-2.83593e-10
-2.47541e-10
-6.36643e-09
5.27495e-12
4.81799e-12
-3.01277e-11
-8.75393e-12
-1.07847e-10
-2.17976e-11
-2.19927e-10
-3.20599e-11
-3.60567e-10
-4.04254e-11
-5.26242e-10
-4.77472e-11
-7.14758e-10
-5.45005e-11
-9.24316e-10
-6.08404e-11
-1.15284e-09
-6.66993e-11
-1.39757e-09
-7.18727e-11
-1.65482e-09
-7.60864e-11
-1.91999e-09
-7.905e-11
-2.18768e-09
-8.04978e-11
-2.45187e-09
-8.02191e-11
-2.70617e-09
-7.80763e-11
-2.94418e-09
-7.40147e-11
-3.15973e-09
-6.80439e-11
-6.02308e-11
-3.34704e-09
4.81799e-12
-3.93594e-12
-2.57335e-11
-5.77934e-11
-9.82189e-11
-1.45966e-10
-2.00467e-10
-2.61307e-10
-3.28006e-10
-3.99879e-10
-4.75965e-10
-5.55015e-10
-6.35513e-10
-7.15732e-10
-7.93808e-10
-8.67823e-10
-9.35867e-10
-9.96098e-10
7.91015e-11
-7.91015e-11
2.843e-10
-2.05199e-10
5.70315e-10
-2.86015e-10
8.91268e-10
-3.20953e-10
1.20907e-09
-3.17803e-10
1.49374e-09
-2.84664e-10
1.72269e-09
-2.2895e-10
1.87977e-09
-1.57088e-10
1.95416e-09
-7.43808e-11
1.93895e-09
1.5209e-11
1.83059e-09
1.08358e-10
1.62726e-09
2.03326e-10
1.32839e-09
2.98868e-10
9.33834e-10
3.94561e-10
4.43297e-10
4.90537e-10
-1.44012e-10
5.87309e-10
-8.29644e-10
6.85633e-10
-1.61594e-09
7.86297e-10
-2.5059e-09
8.89962e-10
-3.50299e-09
9.97091e-10
-4.61081e-09
1.10782e-09
-5.8327e-09
1.22189e-09
-7.17132e-09
1.33862e-09
-8.62819e-09
1.45687e-09
-1.02033e-08
1.57509e-09
-1.18946e-08
1.69131e-09
-1.36978e-08
1.8032e-09
-1.56059e-08
1.90812e-09
-1.76091e-08
2.00314e-09
-1.96943e-08
2.08519e-09
-2.18453e-08
2.15106e-09
-2.40428e-08
2.19754e-09
-2.62643e-08
2.22149e-09
-2.84843e-08
2.21997e-09
-3.06747e-08
2.19037e-09
-3.28052e-08
2.13048e-09
-3.48438e-08
2.03862e-09
-3.67575e-08
1.91374e-09
-3.8513e-08
1.7555e-09
-4.00773e-08
1.56433e-09
-4.14188e-08
1.34144e-09
-4.25076e-08
1.08884e-09
-4.33169e-08
8.09281e-10
-4.38232e-08
5.06257e-10
-4.40075e-08
1.84293e-10
-4.38531e-08
-1.5433e-10
-4.33511e-08
-5.02031e-10
-4.24969e-08
-8.54146e-10
-4.12911e-08
-1.20581e-09
-3.97394e-08
-1.55179e-09
-3.78521e-08
-1.88728e-09
-3.56442e-08
-2.2079e-09
-3.31344e-08
-2.50981e-09
-3.03446e-08
-2.78978e-09
-2.72994e-08
-3.04522e-09
-2.40252e-08
-3.27416e-09
-2.055e-08
-3.47522e-09
-1.69025e-08
-3.64747e-09
-1.31121e-08
-3.79037e-09
-9.20864e-09
-3.90351e-09
-5.22215e-09
-3.98649e-09
-1.1837e-09
-4.03845e-09
2.8754e-09
-4.0591e-09
6.92288e-09
-4.04748e-09
1.09242e-08
-4.00128e-09
1.4843e-08
-3.9188e-09
1.86411e-08
-3.79814e-09
2.22782e-08
-3.63713e-09
2.57118e-08
-3.43362e-09
2.88977e-08
-3.18589e-09
3.17907e-08
-2.89297e-09
3.43457e-08
-2.55495e-09
3.65191e-08
-2.17339e-09
3.82706e-08
-1.75153e-09
3.95652e-08
-1.2946e-09
4.03751e-08
-8.09963e-10
4.06827e-08
-3.07506e-10
4.04787e-08
2.03922e-10
3.97723e-08
7.06445e-10
3.85825e-08
1.18976e-09
3.69437e-08
1.63887e-09
3.49038e-08
2.03986e-09
3.25236e-08
2.38017e-09
2.98742e-08
2.64941e-09
2.70339e-08
2.84028e-09
2.40847e-08
2.94921e-09
2.1108e-08
2.97678e-09
1.81803e-08
2.92766e-09
1.537e-08
2.81033e-09
1.27337e-08
2.63628e-09
1.03147e-08
2.41896e-09
8.14211e-09
2.17261e-09
6.23107e-09
1.91104e-09
4.58446e-09
1.64661e-09
3.1949e-09
1.38956e-09
2.04713e-09
1.14777e-09
1.12022e-09
9.26907e-10
3.89312e-10
7.30912e-10
-1.732e-10
5.62511e-10
-5.96705e-10
4.23505e-10
-9.11387e-10
3.14682e-10
-1.14694e-09
2.35552e-10
-1.33106e-09
1.8412e-10
-1.48779e-09
1.56733e-10
-1.6362e-09
1.48404e-10
-1.78962e-09
1.53422e-10
-1.9557e-09
1.66085e-10
-2.13706e-09
1.81354e-10
-2.33232e-09
1.95266e-10
-2.53741e-09
2.05083e-10
-2.74663e-09
2.0922e-10
-2.95367e-09
2.07044e-10
-3.1523e-09
1.9863e-10
-3.33684e-09
1.84537e-10
-3.50246e-09
1.65623e-10
-3.64538e-09
1.42915e-10
-3.76288e-09
1.17509e-10
-3.85338e-09
9.0499e-11
-3.91631e-09
6.29287e-11
-3.95206e-09
3.57478e-11
-3.96191e-09
9.84702e-12
-3.9476e-09
-1.43108e-11
-3.91171e-09
-3.58887e-11
-3.85698e-09
-5.47227e-11
-3.78644e-09
-7.0547e-11
-3.70315e-09
-8.32896e-11
-3.61015e-09
-9.30012e-11
-3.51031e-09
-9.98323e-11
-3.4063e-09
-1.04011e-10
-3.30048e-09
-1.0582e-10
-3.19491e-09
-1.05572e-10
-3.09132e-09
-1.03594e-10
-2.99111e-09
-1.00211e-10
-2.89538e-09
-9.57315e-11
-2.80494e-09
-9.04396e-11
-2.72035e-09
-8.45902e-11
-2.64194e-09
-7.84043e-11
-2.56987e-09
-7.20697e-11
-2.50413e-09
-6.57405e-11
-2.44459e-09
-5.95403e-11
-2.39103e-09
-5.35643e-11
-2.34314e-09
-4.78833e-11
-2.3006e-09
-4.25468e-11
-2.26301e-09
-3.75862e-11
-2.22999e-09
-3.30189e-11
-2.20114e-09
-2.88503e-11
-2.17606e-09
-2.50771e-11
-2.15437e-09
-2.16888e-11
-2.1357e-09
-1.86701e-11
-2.1197e-09
-1.60017e-11
-2.10604e-09
-1.36621e-11
-2.09441e-09
-1.16282e-11
-2.08454e-09
-9.87608e-12
-2.07616e-09
-8.3813e-12
-2.06904e-09
-7.11954e-12
-2.06297e-09
-6.06668e-12
-2.05777e-09
-5.19753e-12
-2.05329e-09
-4.48649e-12
-2.04938e-09
-3.90758e-12
-2.04595e-09
-3.43235e-12
-2.04292e-09
-3.02955e-12
-2.04025e-09
-2.66448e-12
-2.03795e-09
-2.2998e-12
-2.03605e-09
-1.89764e-12
-2.03463e-09
-1.42515e-12
-2.03377e-09
-8.57878e-13
-2.03359e-09
-1.77955e-13
-2.03412e-09
5.23712e-13
-2.03526e-09
1.14006e-12
-2.0368e-09
1.5409e-12
-2.03823e-09
1.43565e-12
-2.03876e-09
5.30128e-13
-2.03696e-09
-1.80622e-12
-2.03102e-09
-5.93206e-12
-2.01843e-09
-1.25939e-11
-1.99567e-09
-2.27602e-11
-1.95735e-09
-3.83254e-11
-1.89374e-09
-6.3602e-11
-1.79156e-09
-1.02178e-10
-2.26468e-10
-1.5651e-09
1.58844e-10
-2.37945e-10
5.09909e-10
-5.56263e-10
9.56061e-10
-7.32167e-10
1.41803e-09
-7.82924e-10
1.82907e-09
-7.28845e-10
2.13456e-09
-5.90147e-10
2.29103e-09
-3.8542e-10
2.26492e-09
-1.30986e-10
2.03106e-09
1.59484e-10
1.57127e-09
4.75e-10
8.7245e-10
8.07176e-10
-7.43172e-11
1.15009e-09
-1.27543e-09
1.49998e-09
-2.73576e-09
1.85489e-09
-4.45947e-09
2.21425e-09
-6.45062e-09
2.57846e-09
-8.7134e-09
2.94841e-09
-1.12521e-08
3.325e-09
-1.40708e-08
3.70868e-09
-1.71729e-08
4.09913e-09
-2.056e-08
4.49494e-09
-2.42315e-08
4.89341e-09
-2.81834e-08
5.29049e-09
-3.24073e-08
5.68075e-09
-3.68897e-08
6.05751e-09
-4.16113e-08
6.4129e-09
-4.65462e-08
6.73816e-09
-5.16619e-08
7.02382e-09
-5.69188e-08
7.26e-09
-6.22703e-08
7.43675e-09
-6.76636e-08
7.54433e-09
-7.30397e-08
7.57362e-09
-7.83346e-08
7.51641e-09
-8.34804e-08
7.36578e-09
-8.84064e-08
7.11639e-09
-9.30407e-08
6.76473e-09
-9.73114e-08
6.30937e-09
-1.01149e-07
5.75108e-09
-1.04486e-07
5.09289e-09
-1.07262e-07
4.34008e-09
-1.09421e-07
3.50009e-09
-1.10914e-07
2.58232e-09
-1.11703e-07
1.59788e-09
-1.11756e-07
5.59593e-10
-1.11052e-07
-5.19277e-10
-1.09583e-07
-1.62415e-09
-1.07346e-07
-2.73898e-09
-1.04351e-07
-3.84921e-09
-1.00616e-07
-4.94071e-09
-9.61673e-08
-6.00018e-09
-9.1039e-08
-7.01556e-09
-8.52707e-08
-7.97622e-09
-7.89073e-08
-8.87321e-09
-7.19978e-08
-9.6993e-09
-6.4594e-08
-1.0449e-08
-5.67497e-08
-1.11184e-08
-4.85197e-08
-1.17052e-08
-3.99593e-08
-1.22079e-08
-3.11236e-08
-1.2626e-08
-2.20679e-08
-1.29592e-08
-1.28473e-08
-1.32071e-08
-3.51739e-09
-1.33684e-08
5.86399e-09
-1.34405e-08
1.5236e-08
-1.34195e-08
2.45356e-08
-1.33008e-08
3.36959e-08
-1.30792e-08
4.26455e-08
-1.27477e-08
5.1307e-08
-1.22987e-08
5.95976e-08
-1.17242e-08
6.74285e-08
-1.10168e-08
7.47063e-08
-1.01708e-08
8.1334e-08
-9.18259e-09
8.72127e-08
-8.05217e-09
9.22451e-08
-6.78386e-09
9.63377e-08
-5.38725e-09
9.94057e-08
-3.87794e-09
1.01376e-07
-2.27803e-09
1.02195e-07
-6.15168e-10
1.01831e-07
1.07115e-09
1.00278e-07
2.7419e-09
9.75659e-08
4.35146e-09
9.37534e-08
5.85236e-09
8.8936e-08
7.19752e-09
8.32423e-08
8.34309e-09
7.68308e-08
9.25179e-09
6.98838e-08
9.89622e-09
6.25989e-08
1.02617e-08
5.51786e-08
1.03479e-08
4.78193e-08
1.01696e-08
4.07002e-08
9.75537e-09
3.39743e-08
9.14488e-09
2.77617e-08
8.38525e-09
2.21463e-08
7.52643e-09
1.71761e-08
6.61684e-09
1.28658e-08
5.69982e-09
9.20202e-09
4.81155e-09
6.14853e-09
3.98039e-09
3.6518e-09
3.22764e-09
1.64571e-09
2.5686e-09
5.56867e-11
2.01353e-09
-1.19728e-09
1.56765e-09
-2.19224e-09
1.2305e-09
-3.00348e-09
9.9536e-10
-3.69634e-09
8.49598e-10
-4.32374e-09
7.75804e-10
-4.92429e-09
7.53967e-10
-5.52219e-09
7.63993e-10
-6.12876e-09
7.87916e-10
-6.74485e-09
8.11361e-10
-7.36388e-09
8.24115e-10
-7.97463e-09
8.19971e-10
-8.5637e-09
7.96112e-10
-9.1174e-09
7.52325e-10
-9.62309e-09
6.9023e-10
-1.00701e-08
6.1263e-10
-1.04502e-08
5.23001e-10
-1.07578e-08
4.25121e-10
-1.09901e-08
3.22788e-10
-1.11468e-08
2.19615e-10
-1.12299e-08
1.18875e-10
-1.12435e-08
2.34259e-11
-1.11932e-08
-6.45537e-11
-1.1086e-08
-1.43172e-10
-1.09293e-08
-2.11328e-10
-1.07315e-08
-2.6837e-10
-1.05007e-08
-3.14137e-10
-1.02448e-08
-3.48886e-10
-9.97141e-09
-3.73215e-10
-9.68744e-09
-3.8798e-10
-9.39905e-09
-3.94212e-10
-9.11157e-09
-3.93048e-10
-8.8295e-09
-3.85663e-10
-8.55649e-09
-3.73217e-10
-8.29541e-09
-3.56812e-10
-8.04839e-09
-3.37464e-10
-7.8169e-09
-3.16082e-10
-7.60185e-09
-2.93458e-10
-7.40365e-09
-2.70266e-10
-7.22233e-09
-2.47061e-10
-7.05758e-09
-2.2429e-10
-6.90884e-09
-2.02301e-10
-6.77537e-09
-1.81353e-10
-6.65629e-09
-1.61632e-10
-6.55062e-09
-1.43256e-10
-6.45734e-09
-1.26295e-10
-6.37542e-09
-1.10775e-10
-6.3038e-09
-9.66887e-11
-6.24149e-09
-8.40036e-11
-6.18749e-09
-7.26681e-11
-6.14088e-09
-6.26165e-11
-6.10076e-09
-5.37737e-11
-6.06633e-09
-4.60584e-11
-6.03683e-09
-3.93851e-11
-6.01154e-09
-3.36672e-11
-5.98984e-09
-2.88164e-11
-5.97117e-09
-2.47443e-11
-5.955e-09
-2.13611e-11
-5.94091e-09
-1.85748e-11
-5.92853e-09
-1.62896e-11
-5.91756e-09
-1.44026e-11
-5.90779e-09
-1.28016e-11
-5.89909e-09
-1.1364e-11
-5.89143e-09
-9.96006e-12
-5.88486e-09
-8.46194e-12
-5.87953e-09
-6.76209e-12
-5.87558e-09
-4.80304e-12
-5.87314e-09
-2.62252e-12
-5.87219e-09
-4.24593e-13
-5.87243e-09
1.37616e-12
-5.873e-09
2.1143e-12
-5.87239e-09
8.22925e-13
-5.86801e-09
-3.84334e-12
-5.85628e-09
-1.35382e-11
-5.83201e-09
-3.02021e-11
-5.78834e-09
-5.62616e-11
-5.71614e-09
-9.496e-11
-5.60265e-09
-1.51816e-10
-5.42944e-09
-2.36814e-10
-5.16379e-09
-3.67826e-10
-6.3063e-10
-4.75963e-09
1.41317e-10
-3.79262e-10
4.22117e-10
-8.37063e-10
7.30421e-10
-1.04047e-09
9.77598e-10
-1.0301e-09
1.09112e-09
-8.42372e-10
1.01149e-09
-5.10512e-10
6.90171e-10
-6.41018e-11
8.8074e-11
4.71111e-10
-8.26014e-10
1.07357e-09
-2.0767e-09
1.72568e-09
-3.68325e-09
2.41373e-09
-5.66075e-09
3.12759e-09
-8.02106e-09
3.86029e-09
-1.07736e-08
4.60748e-09
-1.39261e-08
5.36674e-09
-1.74846e-08
6.1369e-09
-2.14533e-08
6.91716e-09
-2.58347e-08
7.70639e-09
-3.06284e-08
8.50233e-09
-3.58303e-08
9.30106e-09
-4.14318e-08
1.00965e-08
-4.74185e-08
1.08801e-08
-5.3769e-08
1.1641e-08
-6.04541e-08
1.23659e-08
-6.74362e-08
1.30396e-08
-7.46685e-08
1.36452e-08
-8.20952e-08
1.41648e-08
-8.96515e-08
1.45802e-08
-9.72647e-08
1.48731e-08
-1.04854e-07
1.50264e-08
-1.12334e-07
1.50244e-08
-1.19614e-07
1.48536e-08
-1.26601e-07
1.45032e-08
-1.33201e-07
1.39658e-08
-1.39322e-07
1.32373e-08
-1.44875e-07
1.23177e-08
-1.49777e-07
1.12108e-08
-1.5395e-07
9.92416e-09
-1.57326e-07
8.46935e-09
-1.59847e-07
6.86124e-09
-1.61465e-07
5.1178e-09
-1.62142e-07
3.25958e-09
-1.61854e-07
1.30929e-09
-1.60586e-07
-7.0849e-10
-1.58337e-07
-2.76829e-09
-1.55117e-07
-4.84408e-09
-1.50945e-07
-6.91075e-09
-1.4585e-07
-8.94434e-09
-1.39868e-07
-1.09224e-08
-1.33044e-07
-1.28243e-08
-1.25428e-07
-1.4632e-08
-1.17074e-07
-1.63299e-08
-1.08042e-07
-1.79055e-08
-9.83919e-08
-1.9349e-08
-8.81874e-08
-2.06535e-08
-7.7491e-08
-2.18149e-08
-6.63653e-08
-2.28309e-08
-5.4872e-08
-2.37012e-08
-4.30716e-08
-2.44263e-08
-3.10238e-08
-2.50071e-08
-1.8787e-08
-2.54438e-08
-6.42006e-09
-2.57353e-08
6.0175e-09
-2.5878e-08
1.84629e-08
-2.58649e-08
3.08497e-08
-2.56877e-08
4.31072e-08
-2.53367e-08
5.51584e-08
-2.47988e-08
6.69188e-08
-2.40591e-08
7.82961e-08
-2.31015e-08
8.91894e-08
-2.19101e-08
9.94895e-08
-2.04709e-08
1.09079e-07
-1.87726e-08
1.17836e-07
-1.68091e-08
1.25633e-07
-1.45805e-08
1.32341e-07
-1.20951e-08
1.37834e-07
-9.37086e-09
1.41992e-07
-6.4366e-09
1.4471e-07
-3.33319e-09
1.45897e-07
-1.14983e-10
1.45488e-07
3.15016e-09
1.43457e-07
6.38258e-09
1.39815e-07
9.49467e-09
1.34619e-07
1.23935e-08
1.27977e-07
1.49853e-08
1.20047e-07
1.71814e-08
1.11038e-07
1.89056e-08
1.01198e-07
2.01014e-08
9.08078e-08
2.0738e-08
8.01623e-08
2.0815e-08
6.95539e-08
2.03639e-08
5.92538e-08
1.9445e-08
4.94967e-08
1.81423e-08
4.04685e-08
1.65546e-08
3.23e-08
1.47854e-08
2.50657e-08
1.29341e-08
1.87885e-08
1.10887e-08
1.34463e-08
9.32264e-09
8.98063e-09
7.69331e-09
5.30562e-09
6.24362e-09
2.3162e-09
5.00295e-09
-1.03696e-10
3.98754e-09
-2.07305e-09
3.19986e-09
-3.70563e-09
2.62794e-09
-5.10254e-09
2.24651e-09
-6.347e-09
2.02026e-09
-7.50131e-09
1.90828e-09
-8.60655e-09
1.86923e-09
-9.68461e-09
1.86597e-09
-1.07417e-08
1.86847e-09
-1.17727e-08
1.85508e-09
-1.2765e-08
1.81231e-09
-1.37026e-08
1.73368e-09
-1.45684e-08
1.61814e-09
-1.53467e-08
1.46855e-09
-1.60244e-08
1.29033e-09
-1.65918e-08
1.09036e-09
-1.70428e-08
8.76173e-10
-1.73754e-08
6.5538e-10
-1.7591e-08
4.35176e-10
-1.76942e-08
2.22037e-10
-1.76922e-08
2.15021e-11
-1.75947e-08
-1.62042e-10
-1.74127e-08
-3.25253e-10
-1.7158e-08
-4.66001e-10
-1.68431e-08
-5.83209e-10
-1.64805e-08
-6.76759e-10
-1.60821e-08
-7.47349e-10
-1.56589e-08
-7.96337e-10
-1.52213e-08
-8.25573e-10
-1.47783e-08
-8.37242e-10
-1.43376e-08
-8.33714e-10
-1.39059e-08
-8.17422e-10
-1.34884e-08
-7.90755e-10
-1.30892e-08
-7.55976e-10
-1.27115e-08
-7.15168e-10
-1.23574e-08
-6.70191e-10
-1.20282e-08
-6.22668e-10
-1.17245e-08
-5.73977e-10
-1.14463e-08
-5.25259e-10
-1.11931e-08
-4.77433e-10
-1.09642e-08
-4.31216e-10
-1.07584e-08
-3.87146e-10
-1.05744e-08
-3.45608e-10
-1.04108e-08
-3.06855e-10
-1.02661e-08
-2.71035e-10
-1.01387e-08
-2.38208e-10
-1.0027e-08
-2.08364e-10
-9.92954e-09
-1.81442e-10
-9.84487e-09
-1.5734e-10
-9.77156e-09
-1.35925e-10
-9.70829e-09
-1.17046e-10
-9.65381e-09
-1.00536e-10
-9.60698e-09
-8.62226e-11
-9.56672e-09
-7.39249e-11
-9.53207e-09
-6.34613e-11
-9.50217e-09
-5.46485e-11
-9.47623e-09
-4.73005e-11
-9.45358e-09
-4.12264e-11
-9.43364e-09
-3.62276e-11
-9.41595e-09
-3.20918e-11
-9.40016e-09
-2.859e-11
-9.38605e-09
-2.54755e-11
-9.37352e-09
-2.24911e-11
-9.36259e-09
-1.939e-11
-9.35338e-09
-1.5976e-11
-9.34601e-09
-1.21683e-11
-9.34054e-09
-8.09577e-12
-9.33676e-09
-4.2072e-12
-9.33398e-09
-1.39838e-12
-9.33075e-09
-1.11222e-12
-9.32451e-09
-5.41921e-12
-9.31129e-09
-1.7067e-11
-9.2854e-09
-3.94229e-11
-9.23911e-09
-7.64958e-11
-9.16231e-09
-1.33066e-10
-9.04203e-09
-2.15234e-10
-8.86172e-09
-3.32131e-10
-8.59965e-09
-4.98885e-10
-8.22489e-09
-7.42587e-10
-1.1155e-09
-7.74002e-09
5.77297e-11
-4.36992e-10
1.12188e-10
-8.91521e-10
6.64262e-11
-9.9471e-10
-1.57217e-10
-8.06458e-10
-6.21879e-10
-3.7771e-10
-1.37955e-09
2.47163e-10
-2.47335e-09
1.02969e-09
-3.93931e-09
1.93708e-09
-5.80757e-09
2.94182e-09
-8.10338e-09
4.02149e-09
-1.08479e-08
5.15825e-09
-1.40587e-08
6.33837e-09
-1.775e-08
7.55158e-09
-2.19329e-08
8.79036e-09
-2.66151e-08
1.0049e-08
-3.1801e-08
1.13228e-08
-3.74904e-08
1.26065e-08
-4.36782e-08
1.38942e-08
-5.03531e-08
1.51772e-08
-5.74967e-08
1.64447e-08
-6.50823e-08
1.7682e-08
-7.30738e-08
1.88716e-08
-8.14252e-08
1.99924e-08
-9.00801e-08
2.10208e-08
-9.89716e-08
2.19311e-08
-1.08023e-07
2.26965e-08
-1.17148e-07
2.329e-08
-1.26254e-07
2.36857e-08
-1.3524e-07
2.38593e-08
-1.44003e-07
2.37898e-08
-1.52438e-07
2.34595e-08
-1.6044e-07
2.28554e-08
-1.67906e-07
2.19697e-08
-1.7474e-07
2.07996e-08
-1.80851e-07
1.93481e-08
-1.86157e-07
1.76233e-08
-1.90585e-07
1.56388e-08
-1.94074e-07
1.34132e-08
-1.96574e-07
1.09691e-08
-1.98046e-07
8.33332e-09
-1.98463e-07
5.53555e-09
-1.97812e-07
2.60813e-09
-1.96088e-07
-4.14455e-10
-1.933e-07
-3.49673e-09
-1.89465e-07
-6.60311e-09
-1.8461e-07
-9.69929e-09
-1.78769e-07
-1.27521e-08
-1.71983e-07
-1.573e-08
-1.64301e-07
-1.86041e-08
-1.55777e-07
-2.13484e-08
-1.46469e-07
-2.39404e-08
-1.36437e-07
-2.63611e-08
-1.25747e-07
-2.8596e-08
-1.14462e-07
-3.06342e-08
-1.02646e-07
-3.2469e-08
-9.03638e-08
-3.40972e-08
-7.76764e-08
-3.55184e-08
-6.46431e-08
-3.67345e-08
-5.1321e-08
-3.77485e-08
-3.77646e-08
-3.85635e-08
-2.40267e-08
-3.91817e-08
-1.01592e-08
-3.96028e-08
3.78624e-09
-3.98235e-08
1.77569e-08
-3.98355e-08
3.16955e-08
-3.96263e-08
4.55395e-08
-3.91807e-08
5.922e-08
-3.84793e-08
7.26598e-08
-3.7499e-08
8.5773e-08
-3.62147e-08
9.84635e-08
-3.46006e-08
1.10625e-07
-3.26325e-08
1.22142e-07
-3.0289e-08
1.32887e-07
-2.75547e-08
1.42728e-07
-2.44215e-08
1.51525e-07
-2.08915e-08
1.59132e-07
-1.69788e-08
1.65408e-07
-1.27117e-08
1.70209e-07
-8.13473e-09
1.73404e-07
-3.3101e-09
1.74875e-07
1.67943e-09
1.74526e-07
6.73113e-09
1.72299e-07
1.17222e-08
1.68176e-07
1.65161e-08
1.62195e-07
2.09662e-08
1.54454e-07
2.49232e-08
1.45114e-07
2.82449e-08
1.34408e-07
3.08082e-08
1.22623e-07
3.25222e-08
1.101e-07
3.33388e-08
9.72021e-08
3.32613e-08
8.43008e-08
3.23463e-08
7.17436e-08
3.06995e-08
5.98335e-08
2.84646e-08
4.88109e-08
2.5808e-08
3.88431e-08
2.29018e-08
3.00233e-08
1.99085e-08
2.23753e-08
1.69707e-08
1.58631e-08
1.42054e-08
1.04037e-08
1.1703e-08
5.87914e-09
9.52753e-09
2.1498e-09
7.71688e-09