/*--------------------------------*- C++ -*----------------------------------*\
  =========                 |
  \\      /  F ield         | OpenFOAM: The Open Source CFD Toolbox
   \\    /   O peration     | Website:  https://openfoam.org
    \\  /    A nd           | Version:  8
     \\/     M anipulation  |
\*---------------------------------------------------------------------------*/
FoamFile
{
    version     2.0;
    format      ascii;
    class       volVectorField;
    location    "0.66";
    object      U;
}
// * * * * * * * * * * * * * * * * * * * * * * * * * * * * * * * * * * * * * //

dimensions      [0 1 -1 0 0 0 0];

internalField   nonuniform List<vector> 
12225
(
(-9.03803e-06 1.22173e-06 0)
(-3.62341e-06 -7.2951e-07 0)
(3.70747e-05 -1.83016e-06 0)
(0.000103263 -2.82961e-06 0)
(0.00019118 -3.72631e-06 0)
(0.000297759 -4.61927e-06 0)
(0.000421497 -5.54334e-06 0)
(0.000561543 -6.5399e-06 0)
(0.000717696 -7.65867e-06 0)
(0.000890483 -8.9825e-06 0)
(0.00108146 -1.06532e-05 0)
(0.00129358 -1.29152e-05 0)
(0.00153168 -1.62117e-05 0)
(0.00180223 -2.12728e-05 0)
(0.00211069 -2.81431e-05 0)
(0.00245516 -2.96372e-05 0)
(0.00275701 -4.75963e-05 0)
(0.000579295 0.00155721 0)
(-1.83771e-05 3.01016e-06 0)
(8.78954e-06 -1.11517e-05 0)
(0.000131809 -2.52831e-05 0)
(0.000327786 -3.79123e-05 0)
(0.000586265 -4.96808e-05 0)
(0.000898603 -6.12192e-05 0)
(0.00125996 -7.29538e-05 0)
(0.00166714 -8.5231e-05 0)
(0.0021184 -9.84456e-05 0)
(0.00261342 -0.000113159 0)
(0.00315345 -0.00013018 0)
(0.00374106 -0.000150574 0)
(0.0043786 -0.000175346 0)
(0.00506117 -0.00020364 0)
(0.00575597 -0.000223225 0)
(0.00632858 -0.000161374 0)
(0.0063829 0.00030484 0)
(0.00213777 0.00384111 0)
(-2.11081e-05 3.2489e-06 0)
(3.92539e-05 -3.54524e-05 0)
(0.000248483 -7.61993e-05 0)
(0.000575193 -0.000113076 0)
(0.00100311 -0.000147667 0)
(0.00151839 -0.000181472 0)
(0.00211242 -0.000215577 0)
(0.00277886 -0.000250792 0)
(0.00351303 -0.000287944 0)
(0.00431147 -0.000328048 0)
(0.00517125 -0.000372243 0)
(0.00608786 -0.000421135 0)
(0.00704916 -0.000472397 0)
(0.00801801 -0.000512576 0)
(0.00888866 -0.000487288 0)
(0.00935457 -0.00019043 0)
(0.0087522 0.00112959 0)
(0.00371654 0.00660731 0)
(-1.88762e-05 -9.04292e-07 0)
(8.52533e-05 -7.79061e-05 0)
(0.000384446 -0.000160306 0)
(0.000841746 -0.000235712 0)
(0.00143595 -0.000306736 0)
(0.00214842 -0.000375946 0)
(0.00296637 -0.000445251 0)
(0.00387936 -0.000515925 0)
(0.00487822 -0.000589048 0)
(0.00595378 -0.000665586 0)
(0.00709486 -0.000745778 0)
(0.00828332 -0.000826873 0)
(0.00948272 -0.000896508 0)
(0.0106109 -0.000913775 0)
(0.0114815 -0.000752527 0)
(0.0116609 -3.26185e-05 0)
(0.0104045 0.00237255 0)
(0.00531917 0.00955385 0)
(-1.30782e-05 -1.27048e-05 0)
(0.000143884 -0.000142522 0)
(0.000536026 -0.000281715 0)
(0.00112227 -0.000410361 0)
(0.00187719 -0.000531897 0)
(0.00277776 -0.000649972 0)
(0.00380663 -0.000767255 0)
(0.00494829 -0.00088523 0)
(0.00618744 -0.00100465 0)
(0.00750669 -0.00112527 0)
(0.00888282 -0.00124416 0)
(0.010279 -0.00135075 0)
(0.0116289 -0.00141415 0)
(0.0128032 -0.0013514 0)
(0.0135515 -0.00094631 0)
(0.0133908 0.000348763 0)
(0.0116557 0.00387281 0)
(0.00692057 0.0123713 0)
(-4.87205e-06 -3.5227e-05 0)
(0.000211844 -0.000233692 0)
(0.000698443 -0.000445012 0)
(0.00140996 -0.000641902 0)
(0.00231716 -0.000828307 0)
(0.003393 -0.00100878 0)
(0.00461519 -0.00118644 0)
(0.00596228 -0.00136241 0)
(0.00741135 -0.00153609 0)
(0.0089346 -0.00170425 0)
(0.0104941 -0.00185766 0)
(0.0120315 -0.00197263 0)
(0.0134502 -0.00199156 0)
(0.0145824 -0.00177948 0)
(0.0151432 -0.00102856 0)
(0.0146747 0.000934418 0)
(0.0126807 0.00549479 0)
(0.00849383 0.0149315 0)
(4.75336e-06 -7.12967e-05 0)
(0.000285444 -0.000355901 0)
(0.000865797 -0.000654895 0)
(0.00169632 -0.000935111 0)
(0.00274405 -0.00120072 0)
(0.00397825 -0.00145683 0)
(0.0053714 -0.00170645 0)
(0.00689544 -0.00194943 0)
(0.00851865 -0.00218239 0)
(0.0102015 -0.00239679 0)
(0.0118899 -0.00257357 0)
(0.0135046 -0.00267085 0)
(0.0149234 -0.00259837 0)
(0.0159552 -0.00216646 0)
(0.016315 -0.000989492 0)
(0.0156217 0.00167404 0)
(0.0135751 0.00713325 0)
(0.0100211 0.0171902 0)
(1.49425e-05 -0.000123413 0)
(0.000360657 -0.00051332 0)
(0.00103111 -0.00091558 0)
(0.00197117 -0.00129388 0)
(0.00314396 -0.00165251 0)
(0.00451522 -0.00199668 0)
(0.00605221 -0.00232842 0)
(0.00771983 -0.00264513 0)
(0.00947706 -0.00293886 0)
(0.0112722 -0.00319325 0)
(0.0130358 -0.00337597 0)
(0.0146709 -0.00342311 0)
(0.0160384 -0.00320944 0)
(0.0169424 -0.00249568 0)
(0.0171272 -0.000842641 0)
(0.0163149 0.00250248 0)
(0.0143844 0.00869923 0)
(0.0114864 0.0191187 0)
(2.49553e-05 -0.00019356 0)
(0.000433208 -0.000709374 0)
(0.00118647 -0.00123025 0)
(0.00222279 -0.0017206 0)
(0.00350097 -0.00218499 0)
(0.00498353 -0.00262817 0)
(0.00663262 -0.0030502 0)
(0.00840624 -0.00344459 0)
(0.0102543 -0.00379687 0)
(0.0121138 -0.00408037 0)
(0.0139026 -0.00424685 0)
(0.0155115 -0.00420857 0)
(0.0167958 -0.0038073 0)
(0.017572 -0.00276551 0)
(0.0176334 -0.000619135 0)
(0.0168099 0.00334881 0)
(0.0151206 0.0101157 0)
(0.0128699 0.0206911 0)
(3.41397e-05 -0.000282971 0)
(0.000498673 -0.000946224 0)
(0.00132316 -0.00160045 0)
(0.00243804 -0.00221549 0)
(0.00379745 -0.00279671 0)
(0.00536099 -0.00334785 0)
(0.00708621 -0.00386587 0)
(0.00892491 -0.00433884 0)
(0.0108191 -0.0047439 0)
(0.0126967 -0.00504211 0)
(0.0144669 -0.00516785 0)
(0.0160156 -0.00501026 0)
(0.0172032 -0.00438393 0)
(0.0178723 -0.0029884 0)
(0.0178748 -0.000362489 0)
(0.0171366 0.004142 0)
(0.0157734 0.0113167 0)
(0.0141455 0.0218835 0)
(4.19204e-05 -0.000392 0)
(0.000552591 -0.00122411 0)
(0.00143196 -0.00202532 0)
(0.00260282 -0.00277582 0)
(0.00401451 -0.00348266 0)
(0.00562422 -0.00414818 0)
(0.00738588 -0.00476511 0)
(0.00924637 -0.00531463 0)
(0.0111419 -0.00576395 0)
(0.0129947 -0.00606065 0)
(0.0147104 -0.00612184 0)
(0.0161773 -0.00581666 0)
(0.0172706 -0.00494116 0)
(0.0178667 -0.00318843 0)
(0.0178763 -0.000123333 0)
(0.0173018 0.00481484 0)
(0.0163159 0.0122459 0)
(0.0152786 0.0226721 0)
(4.74325e-05 -0.000509428 0)
(0.000587573 -0.00151428 0)
(0.00149764 -0.00246109 0)
(0.0026944 -0.00334339 0)
(0.00412312 -0.0041709 0)
(0.00573948 -0.00494452 0)
(0.00749537 -0.00565227 0)
(0.00933504 -0.00626797 0)
(0.011192 -0.00674882 0)
(0.0129869 -0.00702987 0)
(0.0146272 -0.00701393 0)
(0.0160096 -0.00655634 0)
(0.0170285 -0.0054452 0)
(0.0175942 -0.00338147 0)
(0.0176648 3.09478e-05 0)
(0.017293 0.00526694 0)
(0.0166756 0.0128094 0)
(0.0161466 0.0230092 0)
(5.1686e-05 -0.000638934 0)
(0.000607404 -0.00182837 0)
(0.00152742 -0.00292646 0)
(0.00272463 -0.00394349 0)
(0.00414064 -0.00489287 0)
(0.00573055 -0.0057741 0)
(0.00744565 -0.00657007 0)
(0.00922955 -0.0072467 0)
(0.0110157 -0.00775103 0)
(0.0127266 -0.00800632 0)
(0.0142757 -0.00790345 0)
(0.015572 -0.0072888 0)
(0.0165322 -0.00595024 0)
(0.0170987 -0.0036063 0)
(0.0172687 9.24911e-05 0)
(0.0171283 0.0055367 0)
(0.0168793 0.0130925 0)
(0.0168205 0.0229963 0)
(5.45219e-05 -0.000799429 0)
(0.000607129 -0.00221401 0)
(0.0015073 -0.00348996 0)
(0.00266719 -0.00466245 0)
(0.00402579 -0.00575056 0)
(0.00553903 -0.00675231 0)
(0.00715985 -0.00764448 0)
(0.00883409 -0.00838379 0)
(0.0104989 -0.00890607 0)
(0.0120833 -0.00912285 0)
(0.0135118 -0.00891522 0)
(0.0147117 -0.00812592 0)
(0.0156254 -0.00655168 0)
(0.0162278 -0.00394067 0)
(0.0165487 -1.57709e-06 0)
(0.0166941 0.00556725 0)
(0.0168558 0.0130243 0)
(0.0172889 0.0225124 0)
(5.42019e-05 -0.000989545 0)
(0.000572641 -0.00266802 0)
(0.00140465 -0.00414495 0)
(0.00246715 -0.00548916 0)
(0.00369999 -0.00672828 0)
(0.00506259 -0.00785919 0)
(0.00651311 -0.00885216 0)
(0.00800399 -0.00965415 0)
(0.00948125 -0.0101899 0)
(0.0108863 -0.010361 0)
(0.0121607 -0.0100428 0)
(0.0132539 -0.00908183 0)
(0.0141355 -0.00729375 0)
(0.0148085 -0.00446706 0)
(0.0153248 -0.000375771 0)
(0.0157957 0.00519484 0)
(0.0163907 0.0124099 0)
(0.0173174 0.0213405 0)
(4.84137e-05 -0.00119818 0)
(0.000485726 -0.00316348 0)
(0.00117768 -0.00485207 0)
(0.00205424 -0.0063726 0)
(0.0030631 -0.00776477 0)
(0.00417165 -0.00902555 0)
(0.0053482 -0.0101194 0)
(0.00655757 -0.0109845 0)
(0.00776095 -0.0115364 0)
(0.00891823 -0.0116704 0)
(0.00999279 -0.0112621 0)
(0.0109588 -0.0101695 0)
(0.0118102 -0.00823576 0)
(0.0125708 -0.00529631 0)
(0.0133022 -0.00119102 0)
(0.0141069 0.00421657 0)
(0.0151238 0.0110159 0)
(0.0165142 0.0192253 0)
(3.45671e-05 -0.00139526 0)
(0.000326184 -0.00362897 0)
(0.000780565 -0.00551052 0)
(0.00135164 -0.0071883 0)
(0.00200554 -0.00871663 0)
(0.00272388 -0.0100947 0)
(0.00349093 -0.0112838 0)
(0.00429003 -0.0122164 0)
(0.00510373 -0.0128031 0)
(0.00591564 -0.0129379 0)
(0.00671418 -0.0125028 0)
(0.00749767 -0.0113733 0)
(0.0082802 -0.00942434 0)
(0.00909709 -0.00653802 0)
(0.0100083 -0.00261329 0)
(0.0110976 0.00242226 0)
(0.0124696 0.0086007 0)
(0.0142422 0.0159043 0)
(1.02765e-05 -0.00151874 0)
(7.884e-05 -0.00391907 0)
(0.000180751 -0.00591768 0)
(0.000305645 -0.00769061 0)
(0.000449875 -0.00930517 0)
(0.000615773 -0.0107654 0)
(0.000808282 -0.0120337 0)
(0.00103387 -0.0130428 0)
(0.00130051 -0.0137041 0)
(0.00161853 -0.0139162 0)
(0.00200234 -0.0135722 0)
(0.00247279 -0.012567 0)
(0.00305969 -0.0108048 0)
(0.00380374 -0.00820665 0)
(0.00475706 -0.00471646 0)
(0.00598181 -0.000307525 0)
(0.00754775 0.00501298 0)
(0.00953433 0.0112039 0)
(-2.60863e-05 -0.00146285 0)
(-0.000246836 -0.00378727 0)
(-0.000594773 -0.00572958 0)
(-0.00103666 -0.00746102 0)
(-0.00153936 -0.00905162 0)
(-0.00207763 -0.0105113 0)
(-0.00262554 -0.0118098 0)
(-0.00315368 -0.012888 0)
(-0.00362901 -0.0136669 0)
(-0.00401527 -0.0140563 0)
(-0.00427334 -0.0139636 0)
(-0.00436151 -0.0133014 0)
(-0.00423585 -0.0119958 0)
(-0.00385088 -0.00999196 0)
(-0.00316072 -0.00725884 0)
(-0.0021202 -0.00379188 0)
(-0.000684777 0.000386557 0)
(0.00119213 0.00522689 0)
(-5.12258e-05 -0.00119852 0)
(-0.000490717 -0.00315723 0)
(-0.00118514 -0.00483173 0)
(-0.00207193 -0.00634784 0)
(-0.00309573 -0.00776149 0)
(-0.00421982 -0.00908498 0)
(-0.00540781 -0.0102983 0)
(-0.00661812 -0.0113563 0)
(-0.00780341 -0.0121957 0)
(-0.00891146 -0.0127424 0)
(-0.00988656 -0.0129186 0)
(-0.0106714 -0.0126511 0)
(-0.0112094 -0.0118777 0)
(-0.0114466 -0.0105528 0)
(-0.0113341 -0.00865142 0)
(-0.01083 -0.00617083 0)
(-0.00989773 -0.00313112 0)
(-0.00850129 0.000426148 0)
(-6.05345e-05 -0.000902605 0)
(-0.000597953 -0.00245576 0)
(-0.00145712 -0.00382689 0)
(-0.0025655 -0.00508717 0)
(-0.00386189 -0.00627525 0)
(-0.00530786 -0.00740385 0)
(-0.0068654 -0.00846187 0)
(-0.00849067 -0.00941767 0)
(-0.010133 -0.0102235 0)
(-0.0117355 -0.0108211 0)
(-0.0132364 -0.0111477 0)
(-0.0145718 -0.0111427 0)
(-0.015678 -0.0107531 0)
(-0.0164948 -0.00993899 0)
(-0.0169686 -0.00867641 0)
(-0.0170544 -0.00695933 0)
(-0.016715 -0.00479992 0)
(-0.0159178 -0.00222796 0)
(-5.82936e-05 -0.000619763 0)
(-0.000606289 -0.00177899 0)
(-0.00150181 -0.00284482 0)
(-0.0026746 -0.0038375 0)
(-0.00406676 -0.00478014 0)
(-0.00564257 -0.00568512 0)
(-0.00736657 -0.00654861 0)
(-0.00919798 -0.00735067 0)
(-0.0110891 -0.00805782 0)
(-0.0129853 -0.00862686 0)
(-0.0148259 -0.00900966 0)
(-0.0165468 -0.00915807 0)
(-0.0180828 -0.00902872 0)
(-0.0193711 -0.00858701 0)
(-0.0203545 -0.00781011 0)
(-0.0209845 -0.00668853 0)
(-0.0212207 -0.00522678 0)
(-0.0210293 -0.00344365 0)
(-4.7968e-05 -0.000386698 0)
(-0.000544656 -0.00120837 0)
(-0.00138527 -0.00199952 0)
(-0.00250844 -0.00274294 0)
(-0.00386357 -0.00345088 0)
(-0.00541875 -0.00413505 0)
(-0.0071427 -0.00479658 0)
(-0.00900016 -0.00542443 0)
(-0.0109498 -0.00599667 0)
(-0.0129435 -0.0064831 0)
(-0.0149264 -0.0068487 0)
(-0.0168391 -0.00705727 0)
(-0.0186198 -0.00707502 0)
(-0.0202071 -0.00687368 0)
(-0.0215438 -0.00643292 0)
(-0.0225793 -0.00574174 0)
(-0.0232712 -0.0047992 0)
(-0.0235838 -0.00361529 0)
(-3.30321e-05 -0.000214942 0)
(-0.000442795 -0.000769827 0)
(-0.00117424 -0.00133032 0)
(-0.00217671 -0.00185853 0)
(-0.00340725 -0.00236078 0)
(-0.00483739 -0.00284777 0)
(-0.00644035 -0.00332335 0)
(-0.0081872 -0.00378246 0)
(-0.0100443 -0.00421168 0)
(-0.0119719 -0.0045911 0)
(-0.0139237 -0.00489663 0)
(-0.015848 -0.00510259 0)
(-0.0176897 -0.00518423 0)
(-0.0193927 -0.00511997 0)
(-0.0209029 -0.0048932 0)
(-0.0221711 -0.00449346 0)
(-0.0231546 -0.00391701 0)
(-0.0238175 -0.00316785 0)
(-1.65222e-05 -0.000101171 0)
(-0.000325747 -0.000457108 0)
(-0.000923561 -0.000833223 0)
(-0.00176859 -0.00118631 0)
(-0.00282421 -0.00152031 0)
(-0.00406491 -0.00184444 0)
(-0.00546827 -0.00216341 0)
(-0.00701165 -0.00247562 0)
(-0.00866917 -0.00277347 0)
(-0.0104098 -0.00304461 0)
(-0.0121966 -0.0032735 0)
(-0.0139872 -0.00344307 0)
(-0.0157352 -0.00353641 0)
(-0.0173922 -0.00353824 0)
(-0.01891 -0.00343621 0)
(-0.0202436 -0.00322171 0)
(-0.0213525 -0.00289032 0)
(-0.0222031 -0.00244251 0)
(-9.62351e-07 -3.48296e-05 0)
(-0.000212405 -0.000249046 0)
(-0.000672864 -0.000483961 0)
(-0.00134751 -0.000702153 0)
(-0.00220472 -0.000906889 0)
(-0.0032219 -0.00110544 0)
(-0.00438095 -0.00130207 0)
(-0.00566499 -0.00149679 0)
(-0.00705529 -0.00168568 0)
(-0.00852904 -0.00186165 0)
(-0.0100584 -0.00201543 0)
(-0.0116106 -0.00213655 0)
(-0.0131487 -0.0022144 0)
(-0.0146333 -0.00223911 0)
(-0.0160242 -0.00220236 0)
(-0.0172825 -0.00209796 0)
(-0.0183725 -0.00192211 0)
(-0.0192646 -0.00167369 0)
(1.14966e-05 -2.99906e-06 0)
(-0.000115858 -0.000120446 0)
(-0.000447712 -0.000252301 0)
(-0.000953557 -0.000372712 0)
(-0.00160639 -0.000484568 0)
(-0.00238706 -0.000592882 0)
(-0.00328176 -0.000700737 0)
(-0.00427877 -0.000808666 0)
(-0.00536548 -0.000914874 0)
(-0.0065263 -0.00101571 0)
(-0.00774166 -0.00110623 0)
(-0.00898779 -0.00118069 0)
(-0.0102373 -0.00123318 0)
(-0.0114601 -0.00125805 0)
(-0.012625 -0.00125037 0)
(-0.0137009 -0.00120631 0)
(-0.0146585 -0.00112324 0)
(-0.0154736 -0.000999725 0)
(1.88635e-05 6.94347e-06 0)
(-4.43195e-05 -4.80464e-05 0)
(-0.000262313 -0.000109913 0)
(-0.000608606 -0.000165152 0)
(-0.00106156 -0.000215868 0)
(-0.00160642 -0.000264885 0)
(-0.00223361 -0.000313957 0)
(-0.0029358 -0.000363546 0)
(-0.00370539 -0.000412981 0)
(-0.00453279 -0.000460695 0)
(-0.00540551 -0.000504477 0)
(-0.00630794 -0.000541727 0)
(-0.00722155 -0.000569696 0)
(-0.00812561 -0.000585713 0)
(-0.00899808 -0.000587386 0)
(-0.00981658 -0.000572761 0)
(-0.0105595 -0.000540418 0)
(-0.0112088 -0.000489217 0)
(1.90909e-05 6.02838e-06 0)
(-2.1845e-06 -1.30033e-05 0)
(-0.000122531 -3.35058e-05 0)
(-0.000321688 -5.12575e-05 0)
(-0.000585033 -6.73065e-05 0)
(-0.000903132 -8.27799e-05 0)
(-0.0012705 -9.83669e-05 0)
(-0.00168337 -0.000114291 0)
(-0.00213801 -0.000130385 0)
(-0.00262954 -0.00014618 0)
(-0.00315136 -0.000160986 0)
(-0.00369488 -0.000173974 0)
(-0.00424968 -0.00018425 0)
(-0.00480379 -0.000190929 0)
(-0.00534425 -0.000193199 0)
(-0.00585763 -0.000190367 0)
(-0.00633059 -0.000181882 0)
(-0.00675211 -0.000167072 0)
(1.02143e-05 2.08528e-06 0)
(9.14889e-06 -6.20998e-07 0)
(-2.84651e-05 -2.31744e-06 0)
(-9.34869e-05 -3.68522e-06 0)
(-0.000180284 -4.86679e-06 0)
(-0.000285453 -6.00085e-06 0)
(-0.000407242 -7.16185e-06 0)
(-0.000544617 -8.379e-06 0)
(-0.000696604 -9.64695e-06 0)
(-0.000861874 -1.09347e-05 0)
(-0.00103849 -1.21919e-05 0)
(-0.00122383 -1.33555e-05 0)
(-0.00141457 -1.43548e-05 0)
(-0.00160683 -1.51174e-05 0)
(-0.00179629 -1.55737e-05 0)
(-0.0019784 -1.56666e-05 0)
(-0.00214844 -1.53066e-05 0)
(-0.00230251 -1.43583e-05 0)
(1.87639e-05 -4.29624e-05 3.66845e-24)
(0.000148847 -0.000108838 -5.08388e-24)
(0.000368577 -0.000151717 0)
(0.00064527 -0.000172581 0)
(0.000936317 -0.000176744 0)
(0.00120974 -0.000168809 2.88122e-24)
(0.00144236 -0.000152692 0)
(0.00161731 -0.000131649 0)
(0.00172277 -0.000108198 0)
(0.00175097 -8.4131e-05 0)
(0.00169736 -6.05795e-05 8.91031e-24)
(0.00155962 -3.81921e-05 0)
(0.00133673 -1.71943e-05 0)
(0.00102835 2.5225e-06 0)
(0.000634262 2.13001e-05 0)
(0.000153916 3.96255e-05 2.797e-23)
(-0.000413847 5.80635e-05 0)
(-0.00107091 7.72017e-05 0)
(-0.00181982 9.75979e-05 0)
(-0.00266368 0.000119731 0)
(-0.00360587 0.000143967 0)
(-0.00464975 0.000170545 0)
(-0.00579824 0.000199565 0)
(-0.00705348 0.000230987 6.85252e-23)
(-0.00841641 0.000264632 -7.39261e-23)
(-0.00988637 0.000300186 7.92099e-23)
(-0.0114608 0.000337201 8.42867e-23)
(-0.0131347 0.000375101 0)
(-0.014901 0.000413183 0)
(-0.0167493 0.000450625 -9.72007e-23)
(-0.0186668 0.000486494 -1.00324e-22)
(-0.0206376 0.000519764 0)
(-0.0226429 0.000549334 0)
(-0.0246611 0.000574061 -1.0425e-22)
(-0.026668 0.000592794 0)
(-0.0286373 0.000604417 0)
(-0.0305405 0.000607897 9.7157e-23)
(-0.0323483 0.000602337 0)
(-0.0340302 0.000587023 8.47759e-23)
(-0.0355561 0.000561473 1.52129e-22)
(-0.0368963 0.000525478 0)
(-0.0380225 0.000479133 0)
(-0.0389086 0.000422821 0)
(-0.0395314 0.000357208 0)
(-0.0398709 0.000283312 0)
(-0.0399104 0.000202702 -2.17445e-23)
(-0.0396376 0.000116438 -6.05096e-23)
(-0.0390459 2.61108e-05 -1.01138e-22)
(-0.038133 -6.63054e-05 0)
(-0.036901 -0.000158931 1.86011e-22)
(-0.0353568 -0.000249994 0)
(-0.0335115 -0.000337843 -2.72005e-22)
(-0.0313797 -0.000420993 -3.13934e-22)
(-0.0289797 -0.000498179 0)
(-0.0263321 -0.000568374 0)
(-0.0234599 -0.000630805 0)
(-0.0203874 -0.000684936 -4.60296e-22)
(-0.0171402 -0.000730441 0)
(-0.0137445 -0.000767157 0)
(-0.010227 -0.00079503 0)
(-0.00661492 -0.000814019 0)
(-0.00293605 -0.00082385 0)
(0.000780943 -0.000823797 0)
(0.00450786 -0.000813497 0)
(0.00821426 -0.000793311 0)
(0.0118674 -0.000763525 5.09435e-22)
(0.0154328 -0.000724073 0)
(0.0188744 -0.000674774 0)
(0.0221537 -0.000615523 -4.15411e-22)
(0.0252304 -0.000546407 -3.75168e-22)
(0.0280626 -0.000467795 0)
(0.0306079 -0.000380428 2.84824e-22)
(0.0328245 -0.000285488 -2.36167e-22)
(0.0346725 -0.000184629 0)
(0.0361159 -7.99756e-05 1.35975e-22)
(0.0371243 2.5901e-05 0)
(0.0376753 0.000129884 0)
(0.0377546 0.00022844 8.21394e-24)
(0.037361 0.000319275 0)
(0.0365061 0.000399051 -9.01773e-23)
(0.0352138 0.000465106 0)
(0.0335211 0.000515433 1.54452e-22)
(0.0314779 0.000548752 1.78953e-22)
(0.0291452 0.000564647 1.98178e-22)
(0.0265925 0.000563639 4.24437e-22)
(0.0238947 0.000547145 -4.42687e-22)
(0.0211286 0.000517344 0)
(0.0183688 0.000476984 0)
(0.0156839 0.000429132 0)
(0.0131331 0.000376905 -4.37439e-22)
(0.0107643 0.000323222 -4.22866e-22)
(0.0086119 0.000270591 4.05564e-22)
(0.00669727 0.000220972 0)
(0.00502926 0.00017571 -3.67079e-22)
(0.00360598 0.000135557 -3.47611e-22)
(0.00241693 0.000100773 -3.28837e-22)
(0.00144526 7.12799e-05 0)
(0.000669528 4.68426e-05 0)
(6.51823e-05 2.72168e-05 0)
(-0.000394544 1.22268e-05 -2.6719e-22)
(-0.000737754 1.73093e-06 0)
(-0.000992848 -4.50563e-06 0)
(-0.00118716 -6.88355e-06 2.38515e-22)
(-0.00134539 -6.03276e-06 0)
(-0.00148815 -2.77798e-06 0)
(-0.00163088 1.96219e-06 2.23379e-22)
(-0.00178351 7.30283e-06 0)
(-0.00195078 1.25003e-05 0)
(-0.00213309 1.70118e-05 -2.15825e-22)
(-0.00232764 2.05048e-05 -2.13938e-22)
(-0.00252956 2.28291e-05 0)
(-0.00273295 2.39718e-05 2.10113e-22)
(-0.00293167 2.40119e-05 0)
(-0.0031199 2.30819e-05 -2.05551e-22)
(-0.00329251 2.13423e-05 0)
(-0.00344527 1.89638e-05 -1.99854e-22)
(-0.00357499 1.61178e-05 -1.96557e-22)
(-0.00367954 1.29697e-05 0)
(-0.00375778 9.67288e-06 0)
(-0.0038096 6.36408e-06 0)
(-0.00383572 3.17371e-06 0)
(-0.00383756 2.4668e-07 0)
(-0.00381717 -2.4352e-06 0)
(-0.00377709 -4.77429e-06 0)
(-0.00372007 -6.73022e-06 -1.63827e-22)
(-0.00364905 -8.29401e-06 1.59655e-22)
(-0.00356697 -9.47273e-06 0)
(-0.0034767 -1.02871e-05 0)
(-0.00338091 -1.07685e-05 0)
(-0.00328206 -1.09556e-05 0)
(-0.00318229 -1.0891e-05 2.82167e-22)
(-0.00308346 -1.06188e-05 0)
(-0.00298711 -1.01819e-05 -2.69887e-22)
(-0.00289448 -9.62062e-06 2.64294e-22)
(-0.0028065 -8.97154e-06 0)
(-0.00272386 -8.26664e-06 0)
(-0.00264701 -7.53314e-06 0)
(-0.00257622 -6.79343e-06 -2.45056e-22)
(-0.00251156 -6.0654e-06 -2.40891e-22)
(-0.00245298 -5.36277e-06 0)
(-0.00240034 -4.69561e-06 -2.33132e-22)
(-0.00235338 -4.07085e-06 -2.29483e-22)
(-0.00231181 -3.4928e-06 2.25955e-22)
(-0.00227529 -2.96365e-06 0)
(-0.00224344 -2.48396e-06 0)
(-0.00221591 -2.05297e-06 2.15885e-22)
(-0.00219229 -1.66902e-06 0)
(-0.00217221 -1.32978e-06 0)
(-0.00215532 -1.03246e-06 0)
(-0.00214126 -7.73994e-07 0)
(-0.0021297 -5.51193e-07 -1.99852e-22)
(-0.00212033 -3.60801e-07 -1.96659e-22)
(-0.00211287 -1.99594e-07 0)
(-0.00210704 -6.44256e-08 -1.90233e-22)
(-0.00210262 4.77528e-08 0)
(-0.00209938 1.3974e-07 0)
(-0.00209713 2.13484e-07 -1.80446e-22)
(-0.00209569 2.71099e-07 0)
(-0.00209494 3.15512e-07 -1.73806e-22)
(-0.00209473 3.49932e-07 0)
(-0.002095 3.77748e-07 0)
(-0.00209568 4.02478e-07 -1.63669e-22)
(-0.00209676 4.27594e-07 0)
(-0.00209826 4.55944e-07 -1.56797e-22)
(-0.00210024 4.88145e-07 0)
(-0.00210279 5.19084e-07 0)
(-0.00210603 5.50025e-07 0)
(-0.00211005 6.23471e-07 1.42718e-22)
(-0.00211484 7.34519e-07 0)
(-0.00212025 8.25331e-07 -1.35408e-22)
(-0.00212595 8.67141e-07 0)
(-0.00213126 8.29538e-07 0)
(-0.00213505 7.8346e-07 0)
(-0.00213562 5.55066e-07 0)
(-0.00213075 8.6735e-08 0)
(-0.00211732 -6.48459e-07 0)
(-0.00209047 -1.91199e-06 0)
(-0.00204326 -4.76341e-06 2.04466e-22)
(-0.00197789 -5.05515e-06 0)
(-0.00175232 -3.54959e-05 0)
(3.5522e-05 -0.000296383 -1.33982e-23)
(0.000278315 -0.00071418 1.85301e-23)
(0.000639345 -0.00096341 0)
(0.00105699 -0.00106077 -1.24274e-23)
(0.00145865 -0.00103198 0)
(0.00178817 -0.000904358 -3.0793e-24)
(0.0020023 -0.000703123 5.03578e-24)
(0.00206726 -0.000450048 1.09519e-24)
(0.00195711 -0.000162972 0)
(0.00165262 0.000144271 -8.72748e-24)
(0.00113996 0.000461626 -9.57024e-24)
(0.000409293 0.00078226 0)
(-0.00054626 0.00110221 0)
(-0.00173184 0.00141985 0)
(-0.00315166 0.00173529 0)
(-0.00480966 0.00204983 -2.98529e-23)
(-0.00670987 0.00236538 0)
(-0.00885648 0.00268394 6.8558e-23)
(-0.0112537 0.00300713 0)
(-0.0139055 0.00333583 0)
(-0.0168146 0.00366989 -9.78072e-23)
(-0.0199822 0.00400797 0)
(-0.0234067 0.00434743 1.18651e-22)
(-0.0270832 0.00468438 -7.15171e-23)
(-0.0310027 0.00501373 7.68684e-23)
(-0.0351508 0.00532934 -8.20462e-23)
(-0.0395078 0.00562419 -8.69606e-23)
(-0.0440479 0.00589053 0)
(-0.0487391 0.00612019 0)
(-0.0535429 0.00630474 9.90881e-23)
(-0.0584146 0.00643584 -9.05261e-23)
(-0.0633041 0.00650548 0)
(-0.0681558 0.00650628 0)
(-0.07291 0.00643183 1.04762e-22)
(-0.0775039 0.00627696 0)
(-0.0818727 0.00603801 0)
(-0.0859507 0.00571304 -9.69022e-23)
(-0.0896734 0.00530205 0)
(-0.0929782 0.00480702 8.48609e-23)
(-0.0958062 0.00423201 -1.51219e-22)
(-0.0981033 0.00358306 0)
(-0.0998217 0.00286802 0)
(-0.100921 0.0020963 -1.72339e-22)
(-0.101367 0.0012786 -1.14102e-22)
(-0.101135 0.000426963 -4.95002e-23)
(-0.100211 -0.000445635 8.54209e-25)
(-0.0985884 -0.0013261 6.06456e-23)
(-0.0962698 -0.00220109 2.77859e-22)
(-0.0932664 -0.0030579 -2.59637e-22)
(-0.0895975 -0.00388479 -1.88133e-22)
(-0.0852892 -0.00467127 0)
(-0.0803739 -0.00540826 2.77498e-22)
(-0.0748892 -0.00608828 -2.8702e-22)
(-0.0688771 -0.00670551 0)
(-0.0623825 -0.00725575 0)
(-0.0554529 -0.00773636 0)
(-0.048137 -0.00814602 4.83803e-22)
(-0.0404842 -0.00848449 0)
(-0.0325443 -0.00875222 -1.05285e-21)
(-0.0243672 -0.00895004 0)
(-0.0160025 -0.00907866 -1.14106e-21)
(-0.0075008 -0.00913815 0)
(0.00108528 -0.00912761 1.17422e-21)
(0.00970406 -0.00904567 0)
(0.0182996 -0.00889078 -1.11015e-21)
(0.0268116 -0.00866099 5.08874e-22)
(0.0351763 -0.0083536 0)
(0.043325 -0.00796541 9.23338e-22)
(0.0511839 -0.00749335 4.39697e-22)
(0.0586732 -0.00693518 3.95032e-22)
(0.065708 -0.00629007 0)
(0.0721991 -0.00555929 2.65298e-22)
(0.0780545 -0.00474683 2.45611e-22)
(0.0831814 -0.00385993 0)
(0.0874892 -0.00290947 -1.40704e-22)
(0.0908925 -0.00191025 1.54983e-22)
(0.0933153 -0.000881112 0)
(0.0946955 0.00015503 -8.4847e-24)
(0.0949888 0.00117317 0)
(0.0941747 0.00214572 2.8931e-22)
(0.092261 0.00304511 0)
(0.0892851 0.00384491 -4.81549e-22)
(0.0853165 0.00452109 -1.85761e-22)
(0.0804571 0.00505396 2.00074e-22)
(0.0748395 0.00542992 4.23625e-22)
(0.0686223 0.00564283 -4.38134e-22)
(0.0619837 0.00569472 0)
(0.055112 0.00559585 0)
(0.0481959 0.00536387 0)
(0.0414136 0.00502225 1.37438e-21)
(0.0349233 0.00459816 4.60206e-22)
(0.0288551 0.00411999 -4.44436e-22)
(0.0233065 0.00361501 0)
(0.0183407 0.00310733 -3.69819e-22)
(0.0139876 0.00261669 3.87976e-22)
(0.0102485 0.00215799 3.68873e-22)
(0.00710021 0.00174171 0)
(0.00450065 0.00137473 0)
(0.00239369 0.00106139 0)
(0.000713073 0.000803995 3.0436e-22)
(-0.000613736 0.000602943 0)
(-0.00166175 0.000456289 -5.51742e-22)
(-0.00250394 0.000359414 -8.07539e-22)
(-0.00320696 0.000305104 5.22434e-22)
(-0.00382722 0.000284126 0)
(-0.00440822 0.000286305 2.49112e-22)
(-0.00497961 0.000301752 0)
(-0.00555782 0.000321899 4.92225e-22)
(-0.00614806 0.000340134 -2.41636e-22)
(-0.00674696 0.000351975 -2.39774e-22)
(-0.00734541 0.000354907 0)
(-0.00793113 0.000348005 -7.15574e-22)
(-0.00849073 0.000331513 4.71351e-22)
(-0.00901124 0.000306451 2.34648e-22)
(-0.00948118 0.000274302 0)
(-0.0098912 0.000236784 2.28297e-22)
(-0.0102345 0.000195685 6.72231e-22)
(-0.0105067 0.000152749 0)
(-0.0107063 0.000109596 4.3201e-22)
(-0.0108338 6.76573e-05 4.23467e-22)
(-0.010892 2.81529e-05 4.14556e-22)
(-0.0108856 -7.90639e-06 0)
(-0.0108204 -3.99216e-05 0)
(-0.0107034 -6.74006e-05 0)
(-0.0105421 -9.01214e-05 -1.89081e-22)
(-0.0103444 -0.000108081 -1.8354e-22)
(-0.0101181 -0.00012145 0)
(-0.00987075 -0.000130537 -3.50582e-22)
(-0.00960931 -0.000135752 -3.4232e-22)
(-0.00934015 -0.000137568 0)
(-0.00906887 -0.000136489 -3.25751e-22)
(-0.0088003 -0.000133024 -6.39802e-22)
(-0.00853841 -0.000127664 3.12108e-22)
(-0.00828643 -0.000120869 3.0804e-22)
(-0.00804683 -0.000113051 0)
(-0.00782141 -0.000104573 0)
(-0.00761137 -9.57427e-05 0)
(-0.00741741 -8.68172e-05 2.84557e-22)
(-0.00723979 -7.80019e-05 -2.81341e-22)
(-0.0070784 -6.9457e-05 -5.52338e-22)
(-0.00693288 -6.1302e-05 2.71332e-22)
(-0.00680261 -5.36216e-05 -2.68266e-22)
(-0.00668684 -4.64709e-05 -2.63364e-22)
(-0.00658469 -3.98812e-05 0)
(-0.00649521 -3.38642e-05 0)
(-0.00641743 -2.84169e-05 2.527e-22)
(-0.00635034 -2.35249e-05 0)
(-0.00629296 -1.91653e-05 0)
(-0.00624431 -1.53097e-05 -4.8303e-22)
(-0.00620348 -1.19257e-05 0)
(-0.00616958 -8.97852e-06 -2.34403e-22)
(-0.00614179 -6.43254e-06 2.30609e-22)
(-0.00611933 -4.2518e-06 0)
(-0.00610149 -2.40074e-06 -2.23436e-22)
(-0.00608762 -8.44563e-07 0)
(-0.00607712 4.50561e-07 0)
(-0.00606946 1.51701e-06 2.12266e-22)
(-0.00606418 2.3871e-06 -4.16997e-22)
(-0.00606087 3.09454e-06 2.0471e-22)
(-0.0060592 3.6746e-06 0)
(-0.00605893 4.16465e-06 0)
(-0.00605987 4.60436e-06 -1.93073e-22)
(-0.00606197 5.03477e-06 0)
(-0.00606523 5.49507e-06 -1.85176e-22)
(-0.00606978 6.01597e-06 0)
(-0.00607578 6.60864e-06 0)
(-0.0060834 7.26439e-06 0)
(-0.00609276 7.98067e-06 -1.69034e-22)
(-0.00610372 8.65301e-06 0)
(-0.00611576 9.04908e-06 1.60575e-22)
(-0.00612769 8.88342e-06 0)
(-0.00613744 7.81481e-06 0)
(-0.00614182 5.50175e-06 -2.94219e-22)
(-0.00613624 1.27607e-06 2.84762e-22)
(-0.00611441 -5.51057e-06 0)
(-0.00606805 -1.57152e-05 0)
(-0.00598515 -3.10311e-05 0)
(-0.0058504 -5.47728e-05 -7.32965e-22)
(-0.00566085 -9.33926e-05 0)
(-0.00520927 -0.000186457 4.45075e-22)
(3.33179e-05 -0.000607719 -5.34046e-24)
(0.000243316 -0.00137955 -3.26475e-23)
(0.00051566 -0.00176965 0)
(0.000778616 -0.00183963 3.03697e-23)
(0.000954003 -0.00164866 0)
(0.000981327 -0.00125143 0)
(0.000812965 -0.000696603 5.16714e-24)
(0.000410297 -2.60465e-05 -1.09796e-24)
(-0.000257853 0.000725668 -2.07352e-24)
(-0.0012164 0.00153099 8.72177e-24)
(-0.00248504 0.00236896 0)
(-0.00407928 0.00322468 0)
(-0.00601139 0.00408851 -1.99692e-23)
(-0.00829126 0.00495508 -5.30704e-23)
(-0.0109269 0.00582222 6.70242e-23)
(-0.013925 0.00668988 0)
(-0.0172908 0.00755893 9.74338e-23)
(-0.0210278 0.0084301 -6.68925e-23)
(-0.0251379 0.00930299 0)
(-0.0296199 0.0101753 1.49338e-22)
(-0.0344688 0.0110422 9.45101e-23)
(-0.0396753 0.0118962 -1.87773e-22)
(-0.0452241 0.0127268 -1.13861e-22)
(-0.0510934 0.013521 0)
(-0.057254 0.0142631 2.49052e-22)
(-0.0636684 0.0149359 2.69662e-22)
(-0.0702912 0.0155206 0)
(-0.0770686 0.0159979 3.09438e-22)
(-0.0839388 0.0163484 0)
(-0.0908331 0.0165538 3.44763e-22)
(-0.0976764 0.0165971 1.80218e-22)
(-0.104389 0.0164637 0)
(-0.110887 0.0161419 0)
(-0.117087 0.0156234 0)
(-0.122903 0.014904 0)
(-0.128253 0.0139837 0)
(-0.133059 0.0128668 0)
(-0.137245 0.0115623 3.64132e-22)
(-0.140746 0.0100831 -5.02242e-22)
(-0.143503 0.00844617 0)
(-0.145467 0.00667201 0)
(-0.146596 0.00478377 0)
(-0.146862 0.0028068 -3.85444e-23)
(-0.146245 0.000768193 1.07329e-22)
(-0.144737 -0.00130355 1.34319e-22)
(-0.142341 -0.00337961 -2.60397e-24)
(-0.139068 -0.00543223 4.83562e-23)
(-0.134938 -0.00743559 -1.66351e-22)
(-0.12998 -0.00936601 4.30424e-23)
(-0.124229 -0.0112024 -2.84161e-22)
(-0.117727 -0.0129265 0)
(-0.11052 -0.0145234 -4.52437e-22)
(-0.102659 -0.0159815 4.32168e-23)
(-0.0941969 -0.0172925 0)
(-0.0851897 -0.0184513 0)
(-0.0756934 -0.0194555 7.77431e-22)
(-0.0657644 -0.0203052 0)
(-0.0554584 -0.0210023 0)
(-0.0448306 -0.0215496 -9.29456e-22)
(-0.0339348 -0.0219505 -2.05029e-21)
(-0.0228244 -0.0222076 1.11269e-21)
(-0.0115526 -0.0223227 0)
(-0.000174501 -0.0222955 -1.15368e-21)
(0.0112564 -0.022124 0)
(0.0226834 -0.0218034 -9.95159e-22)
(0.0340423 -0.0213276 -1.03157e-21)
(0.0452649 -0.0206889 1.84712e-21)
(0.0562773 -0.0198786 8.08748e-22)
(0.0669978 -0.0188875 0)
(0.077337 -0.0177076 -1.37126e-21)
(0.0871972 -0.0163328 0)
(0.096473 -0.0147604 -1.53735e-21)
(0.105052 -0.0129928 -8.03713e-22)
(0.112816 -0.011038 -6.07283e-22)
(0.119646 -0.00891138 4.12361e-22)
(0.125419 -0.00663644 -3.6947e-22)
(0.130019 -0.00424524 0)
(0.133337 -0.00177885 0)
(0.135278 0.000711997 -2.90202e-22)
(0.135762 0.00316795 -6.15821e-22)
(0.134743 0.00552492 0)
(0.132209 0.0077169 3.03122e-22)
(0.128185 0.0096783 0)
(0.122745 0.0113479 -1.17576e-21)
(0.116009 0.0126736 1.96331e-23)
(0.108145 0.0136173 -1.00736e-23)
(0.0993664 0.0141588 8.70935e-22)
(0.089921 0.014299 0)
(0.0800803 0.0140598 -8.55852e-22)
(0.0701226 0.0134835 -2.27162e-23)
(0.0603164 0.0126283 0)
(0.0509029 0.0115629 0)