/*--------------------------------*- C++ -*----------------------------------*\
  =========                 |
  \\      /  F ield         | OpenFOAM: The Open Source CFD Toolbox
   \\    /   O peration     | Website:  https://openfoam.org
    \\  /    A nd           | Version:  8
     \\/     M anipulation  |
\*---------------------------------------------------------------------------*/
FoamFile
{
    version     2.0;
    format      ascii;
    class       volScalarField;
    location    "0.16";
    object      p;
}
// * * * * * * * * * * * * * * * * * * * * * * * * * * * * * * * * * * * * * //

dimensions      [0 2 -2 0 0 0 0];

internalField   nonuniform List<scalar> 
12225
(
0.393239
-0.138953
-0.184748
-0.173655
-0.185042
-0.196849
-0.205743
-0.213732
-0.221435
-0.228946
-0.236388
-0.243897
-0.251594
-0.259617
-0.268126
-0.27751
-0.287996
-0.305723
0.302454
-0.126742
-0.178529
-0.170729
-0.183218
-0.195719
-0.204888
-0.213071
-0.22094
-0.22858
-0.236129
-0.243735
-0.251527
-0.25965
-0.268266
-0.277739
-0.288269
-0.302569
0.214896
-0.107165
-0.169735
-0.167285
-0.180801
-0.19421
-0.203777
-0.212189
-0.220256
-0.228054
-0.235727
-0.243439
-0.251326
-0.259529
-0.268199
-0.277617
-0.28762
-0.298464
0.148608
-0.0873331
-0.159818
-0.164043
-0.17803
-0.192327
-0.202444
-0.211101
-0.219364
-0.227318
-0.235103
-0.242894
-0.250828
-0.25903
-0.267602
-0.276662
-0.28567
-0.293925
0.0959921
-0.0738113
-0.14959
-0.160605
-0.174802
-0.189823
-0.200646
-0.209611
-0.218078
-0.226194
-0.234081
-0.241917
-0.249837
-0.257938
-0.266241
-0.274693
-0.282522
-0.288837
0.0519041
-0.0678619
-0.14009
-0.156852
-0.171194
-0.186603
-0.198176
-0.207522
-0.216202
-0.22448
-0.232458
-0.240303
-0.248141
-0.256033
-0.26392
-0.271616
-0.278286
-0.283159
0.0149857
-0.0678088
-0.132207
-0.153074
-0.167524
-0.182854
-0.195024
-0.204762
-0.213632
-0.222042
-0.230079
-0.237884
-0.245566
-0.253143
-0.260515
-0.267408
-0.273057
-0.276912
-0.0155501
-0.0717879
-0.126455
-0.149594
-0.164114
-0.178935
-0.191387
-0.201427
-0.210417
-0.21888
-0.22691
-0.234608
-0.242058
-0.24925
-0.256046
-0.262166
-0.266985
-0.270158
-0.0406549
-0.0783172
-0.12294
-0.146617
-0.161132
-0.175183
-0.18756
-0.19774
-0.206741
-0.215149
-0.223075
-0.230583
-0.237727
-0.244478
-0.250693
-0.256123
-0.260307
-0.263041
-0.0612657
-0.0862008
-0.121449
-0.144248
-0.158615
-0.171799
-0.183802
-0.193935
-0.20284
-0.211081
-0.218803
-0.22604
-0.232818
-0.239102
-0.244766
-0.249607
-0.253321
-0.255781
-0.0782113
-0.0945232
-0.121602
-0.14252
-0.156518
-0.168841
-0.180267
-0.190183
-0.198898
-0.206892
-0.214331
-0.221237
-0.227617
-0.233436
-0.238598
-0.242952
-0.246321
-0.248617
-0.0910241
-0.102035
-0.122864
-0.141504
-0.154925
-0.166485
-0.177269
-0.186852
-0.195321
-0.203039
-0.210173
-0.216749
-0.22276
-0.228181
-0.23294
-0.236932
-0.240065
-0.242279
-0.101663
-0.109044
-0.124731
-0.140917
-0.153591
-0.164421
-0.174524
-0.183697
-0.191881
-0.199303
-0.20612
-0.212362
-0.21802
-0.223073
-0.227475
-0.231164
-0.234106
-0.236258
-0.111582
-0.116163
-0.127289
-0.14071
-0.152322
-0.162335
-0.171654
-0.180281
-0.188079
-0.19514
-0.201582
-0.207444
-0.212719
-0.217393
-0.221445
-0.224847
-0.227611
-0.229711
-0.120356
-0.122862
-0.130254
-0.140867
-0.151121
-0.160222
-0.168691
-0.176649
-0.183952
-0.190581
-0.196599
-0.202043
-0.206916
-0.211211
-0.214925
-0.218061
-0.220651
-0.222692
-0.127463
-0.12851
-0.13308
-0.141149
-0.149899
-0.158019
-0.16562
-0.172834
-0.179551
-0.185683
-0.191235
-0.196235
-0.200692
-0.204608
-0.207994
-0.210869
-0.213274
-0.215219
-0.132226
-0.132321
-0.134965
-0.141047
-0.148411
-0.155579
-0.162361
-0.168838
-0.17493
-0.180525
-0.185587
-0.190127
-0.194159
-0.197694
-0.20075
-0.203351
-0.205541
-0.207338
-0.133616
-0.133208
-0.134824
-0.139752
-0.146192
-0.152646
-0.15878
-0.164642
-0.17017
-0.17525
-0.17983
-0.183913
-0.187518
-0.190663
-0.193371
-0.195668
-0.197597
-0.199179
-0.129864
-0.129477
-0.131175
-0.136168
-0.142558
-0.148822
-0.154672
-0.160198
-0.165354
-0.170031
-0.174191
-0.177851
-0.181043
-0.183793
-0.186131
-0.18809
-0.189708
-0.191019
-0.11991
-0.120425
-0.123946
-0.130815
-0.138371
-0.14516
-0.151255
-0.156885
-0.161989
-0.166475
-0.170358
-0.173702
-0.176557
-0.178963
-0.180959
-0.182586
-0.183886
-0.1849
-0.10703
-0.109173
-0.11597
-0.125894
-0.135108
-0.142632
-0.149195
-0.155125
-0.160298
-0.164668
-0.168344
-0.171437
-0.174014
-0.176125
-0.177821
-0.179154
-0.180171
-0.180921
-0.0902227
-0.0954576
-0.107847
-0.122021
-0.132956
-0.141182
-0.148322
-0.154603
-0.159803
-0.164012
-0.167457
-0.170283
-0.172563
-0.174359
-0.175738
-0.17676
-0.177478
-0.177938
-0.0688347
-0.0798164
-0.100971
-0.120025
-0.132134
-0.140915
-0.148685
-0.155215
-0.160284
-0.164231
-0.167389
-0.169903
-0.171849
-0.173309
-0.174361
-0.175068
-0.175489
-0.175648
-0.0416392
-0.0631944
-0.0970692
-0.12049
-0.132689
-0.141902
-0.150228
-0.156736
-0.161468
-0.165065
-0.167895
-0.170072
-0.171685
-0.17283
-0.173593
-0.174032
-0.174213
-0.174121
-0.00693424
-0.0472404
-0.0976781
-0.123363
-0.134498
-0.144125
-0.152729
-0.158865
-0.163123
-0.166347
-0.168842
-0.170695
-0.172012
-0.172899
-0.173438
-0.173682
-0.173695
-0.173441
0.037009
-0.0351647
-0.103605
-0.127827
-0.137349
-0.147417
-0.155799
-0.161257
-0.165002
-0.167864
-0.170035
-0.171602
-0.172683
-0.173379
-0.173761
-0.173876
-0.173784
-0.173447
0.0922545
-0.0327821
-0.115149
-0.132991
-0.140955
-0.151187
-0.158801
-0.163481
-0.166779
-0.169322
-0.171219
-0.172566
-0.17348
-0.174049
-0.174332
-0.174371
-0.174219
-0.17385
0.165775
-0.0438696
-0.131005
-0.138435
-0.144917
-0.15468
-0.161287
-0.165329
-0.168294
-0.170588
-0.172288
-0.173494
-0.174307
-0.174798
-0.175021
-0.175015
-0.174827
-0.174445
0.269939
-0.0602347
-0.146644
-0.144165
-0.14895
-0.157533
-0.163241
-0.166894
-0.169636
-0.171748
-0.17331
-0.174418
-0.175157
-0.175591
-0.175768
-0.175728
-0.175512
-0.175123
0.381457
-0.0689832
-0.157099
-0.148771
-0.151933
-0.159409
-0.164623
-0.168077
-0.170661
-0.172642
-0.17411
-0.17515
-0.175836
-0.176229
-0.176375
-0.17631
-0.176074
-0.175677
-0.243481
-0.243599
-0.243856
-0.244206
-0.244613
-0.245058
-0.245536
-0.246047
-0.246591
-0.247168
-0.247772
-0.248397
-0.24903
-0.249654
-0.250249
-0.25079
-0.251249
-0.251591
-0.251777
-0.251764
-0.251504
-0.250944
-0.250027
-0.24869
-0.246872
-0.244506
-0.241526
-0.23787
-0.233476
-0.22829
-0.222267
-0.215371
-0.207579
-0.198884
-0.189296
-0.178841
-0.167564
-0.155523
-0.1428
-0.129492
-0.115714
-0.101589
-0.0872516
-0.0728369
-0.0584817
-0.0443187
-0.0304727
-0.0170578
-0.00417458
0.00809136
0.0196709
0.0305118
0.0405781
0.0498496
0.0583211
0.0659986
0.0728977
0.0790439
0.0844679
0.0892074
0.0933069
0.096813
0.099774
0.102238
0.104252
0.105863
0.107114
0.108047
0.108701
0.109112
0.109313
0.109335
0.109205
0.108949
0.108589
0.108146
0.107638
0.10708
0.106488
0.105874
0.10525
0.104623
0.104004
0.1034
0.102816
0.102258
0.10173
0.101236
0.100778
0.100359
0.0999795
0.0996413
0.0993453
0.0990923
0.0988829
0.0987174
0.0985957
0.0985177
0.0984828
0.0984901
0.0985387
0.0986273
0.0987549
0.0989199
0.0991211
0.0993569
0.099626
0.0999269
0.100258
0.100618
0.101006
0.101421
0.10186
0.102323
0.102809
0.103316
0.103844
0.104391
0.104956
0.10554
0.106139
0.106755
0.107386
0.108031
0.108691
0.109363
0.110047
0.110744
0.111451
0.11217
0.112898
0.113635
0.114382
0.115138
0.115902
0.116673
0.117453
0.11824
0.119035
0.119836
0.120646
0.121462
0.122285
0.123116
0.123954
0.124799
0.125652
0.126512
0.12738
0.128255
0.129138
0.130029
0.130927
0.131834
0.132749
0.133672
0.134603
0.135543
0.136492
0.13745
0.138418
0.139397
0.140386
0.141387
0.142401
0.14343
0.144474
0.145537
0.146621
0.147728
0.148864
0.150034
0.151244
0.152504
0.153824
0.155217
0.156712
0.158307
0.160193
0.16162
-0.242582
-0.242818
-0.243129
-0.243461
-0.243814
-0.244195
-0.244611
-0.245067
-0.245564
-0.2461
-0.246672
-0.24727
-0.247883
-0.248494
-0.249084
-0.24963
-0.250105
-0.250476
-0.250709
-0.250761
-0.250587
-0.250135
-0.249349
-0.248167
-0.246527
-0.244359
-0.241597
-0.238172
-0.234017
-0.229074
-0.22329
-0.216621
-0.209041
-0.200534
-0.191105
-0.18077
-0.169568
-0.157565
-0.144848
-0.131516
-0.117689
-0.103493
-0.0890661
-0.0745504
-0.0600869
-0.0458123
-0.0318554
-0.0183331
-0.00534838
0.00701158
0.0186765
0.0295935
0.0397264
0.0490551
0.0575797
0.065305
0.072242
0.0784194
0.0838717
0.0886393
0.0927666
0.0963007
0.0992898
0.101782
0.103825
0.105464
0.106743
0.107704
0.108385
0.108822
0.109049
0.109095
0.108988
0.108754
0.108415
0.107991
0.107501
0.10696
0.106383
0.105782
0.10517
0.104554
0.103945
0.10335
0.102774
0.102223
0.101701
0.101213
0.10076
0.100345
0.099969
0.0996339
0.0993404
0.0990895
0.0988818
0.0987177
0.0985973
0.0985203
0.0984862
0.0984941
0.0985433
0.0986324
0.0987602
0.0989255
0.0991269
0.0993628
0.0996319
0.0999328
0.100264
0.100624
0.101012
0.101426
0.101865
0.102328
0.102814
0.103321
0.103849
0.104395
0.104961
0.105544
0.106143
0.106759
0.10739
0.108035
0.108694
0.109366
0.110051
0.110747
0.111454
0.112173
0.112901
0.113638
0.114385
0.11514
0.115904
0.116676
0.117455
0.118242
0.119037
0.119838
0.120647
0.121463
0.122287
0.123117
0.123955
0.124801
0.125653
0.126513
0.127381
0.128256
0.129139
0.13003
0.130929
0.131835
0.13275
0.133673
0.134605
0.135545
0.136494
0.137452
0.13842
0.139399
0.140388
0.14139
0.142404
0.143433
0.144479
0.145542
0.146627
0.147736
0.148874
0.150046
0.151259
0.152522
0.153848
0.155248
0.156753
0.158356
0.160255
0.161642
-0.241585
-0.241962
-0.242368
-0.242724
-0.243061
-0.243416
-0.243806
-0.244245
-0.244737
-0.245285
-0.245885
-0.246529
-0.247206
-0.247903
-0.248602
-0.249281
-0.249916
-0.250476
-0.250926
-0.251226
-0.251328
-0.25118
-0.250721
-0.249886
-0.248605
-0.246803
-0.244404
-0.241329
-0.237504
-0.232858
-0.227331
-0.220871
-0.213442
-0.205025
-0.195616
-0.185236
-0.173937
-0.161786
-0.148873
-0.135306
-0.121211
-0.106726
-0.0919974
-0.0771764
-0.0624127
-0.0478506
-0.0336247
-0.0198568
-0.0066529
0.00589786
0.0177241
0.0287734
0.0390158
0.0484391
0.0570366
0.0648133
0.0717898
0.0779957
0.0834686
0.088251
0.0923894
0.0959322
0.0989289
0.101428
0.103479
0.105127
0.106415
0.107387
0.108079
0.108529
0.108769
0.108829
0.108737
0.108517
0.108192
0.107782
0.107306
0.106778
0.106214
0.105626
0.105026
0.104422
0.103824
0.103238
0.102671
0.102129
0.101616
0.101135
0.100689
0.100281
0.0999108
0.0995811
0.0992925
0.0990461
0.0988425
0.0986821
0.0985652
0.0984914
0.0984602
0.0984709
0.0985225
0.0986139
0.0987438
0.098911
0.0991141
0.0993516
0.0996222
0.0999244
0.100257
0.100618
0.101007
0.101422
0.101862
0.102325
0.102811
0.103319
0.103847
0.104394
0.10496
0.105543
0.106143
0.106759
0.10739
0.108036
0.108695
0.109367
0.110052
0.110748
0.111456
0.112174
0.112902
0.11364
0.114386
0.115142
0.115905
0.116677
0.117456
0.118243
0.119038
0.119839
0.120648
0.121464
0.122288
0.123118
0.123956
0.124801
0.125654
0.126514
0.127381
0.128257
0.12914
0.13003
0.130929
0.131836
0.132751
0.133674
0.134605
0.135545
0.136494
0.137452
0.138421
0.139399
0.140389
0.14139
0.142405
0.143434
0.144479
0.145543
0.146628
0.147737
0.148875
0.150048
0.151262
0.152526
0.153852
0.155253
0.156758
0.158348
0.160233
0.161486
-0.241026
-0.241507
-0.241994
-0.242388
-0.242744
-0.243117
-0.243536
-0.244019
-0.244576
-0.245212
-0.245925
-0.24671
-0.24756
-0.248463
-0.249402
-0.25036
-0.25131
-0.252223
-0.253063
-0.253786
-0.25434
-0.254668
-0.254702
-0.254368
-0.253585
-0.252267
-0.250325
-0.247671
-0.244218
-0.239885
-0.234599
-0.228303
-0.220954
-0.212528
-0.203026
-0.192475
-0.180926
-0.168454
-0.155157
-0.141156
-0.12659
-0.111609
-0.0963758
-0.0810536
-0.0658047
-0.0507837
-0.0361337
-0.0219824
-0.00844011
0.00440171
0.0164717
0.0277252
0.0381397
0.0476983
0.0563951
0.0642443
0.071271
0.0775101
0.0830031
0.0877964
0.0919394
0.0954832
0.098479
0.100977
0.103028
0.104676
0.105968
0.106945
0.107644
0.108103
0.108354
0.108427
0.108348
0.108144
0.107834
0.107441
0.106981
0.106471
0.105923
0.105352
0.104767
0.104179
0.103596
0.103025
0.102473
0.101944
0.101444
0.100975
0.100541
0.100144
0.0997844
0.0994643
0.0991848
0.0989468
0.0987511
0.0985982
0.0984881
0.0984207
0.0983956
0.0984119
0.0984687
0.098565
0.0986994
0.0988708
0.0990777
0.0993188
0.0995926
0.0998978
0.100233
0.100597
0.100988
0.101405
0.101846
0.102312
0.102799
0.103308
0.103838
0.104386
0.104953
0.105537
0.106138
0.106754
0.107386
0.108032
0.108692
0.109365
0.11005
0.110747
0.111455
0.112173
0.112901
0.113639
0.114386
0.115141
0.115905
0.116677
0.117456
0.118243
0.119038
0.119839
0.120648
0.121464
0.122287
0.123118
0.123956
0.124801
0.125653
0.126513
0.127381
0.128256
0.129139
0.13003
0.130928
0.131835
0.13275
0.133672
0.134604
0.135544
0.136492
0.137451
0.138418
0.139396
0.140386
0.141387
0.142401
0.143429
0.144473
0.145535
0.146619
0.147726
0.148861
0.150031
0.15124
0.152498
0.153816
0.155204
0.156689
0.158239
0.160046
0.161167
-0.241284
-0.241821
-0.242358
-0.242786
-0.24318
-0.243605
-0.244098
-0.244678
-0.24536
-0.246151
-0.247051
-0.248059
-0.249169
-0.250372
-0.251654
-0.252997
-0.254376
-0.25576
-0.257111
-0.25838
-0.25951
-0.260435
-0.261079
-0.261356
-0.261175
-0.260436
-0.259039
-0.256879
-0.253858
-0.249882
-0.244868
-0.238747
-0.231469
-0.223009
-0.213366
-0.202568
-0.190668
-0.177751
-0.163929
-0.149336
-0.134129
-0.118477
-0.102561
-0.0865625
-0.0706593
-0.0550202
-0.0397991
-0.0251319
-0.0111341
0.00210029
0.014503
0.0260403
0.0366871
0.046424
0.0552583
0.0632103
0.0703121
0.0766045
0.0821344
0.0869527
0.0911129
0.0946691
0.097675
0.100183
0.102243
0.103904
0.10521
0.106202
0.106921
0.1074
0.107674
0.10777
0.107718
0.107539
0.107257
0.106892
0.106459
0.105976
0.105456
0.104912
0.104353
0.103791
0.103232
0.102685
0.102155
0.101648
0.101168
0.100719
0.100304
0.0999243
0.0995815
0.0992771
0.0990122
0.0987879
0.0986049
0.0984639
0.0983649
0.098308
0.0982925
0.0983178
0.098383
0.098487
0.0986286
0.0988066
0.0990196
0.0992663
0.0995453
0.0998551
0.100195
0.100562
0.100957
0.101377
0.101822
0.10229
0.10278
0.103291
0.103822
0.104372
0.104941
0.105526
0.106128
0.106746
0.107379
0.108026
0.108687
0.10936
0.110046
0.110743
0.111452
0.112171
0.112899
0.113638
0.114385
0.11514
0.115904
0.116676
0.117455
0.118242
0.119037
0.119838
0.120647
0.121463
0.122286
0.123117
0.123954
0.1248
0.125652
0.126512
0.127379
0.128255
0.129137
0.130028
0.130927
0.131833
0.132747
0.13367
0.134601
0.135541
0.136489
0.137447
0.138414
0.139391
0.140379
0.141379
0.142391
0.143418
0.144459
0.145519
0.146598
0.147701
0.14883
0.149992
0.151191
0.152436
0.153736
0.155097
0.156542
0.158026
0.159712
0.160729
-0.242545
-0.243096
-0.243654
-0.244115
-0.244563
-0.245068
-0.245669
-0.24639
-0.247244
-0.248242
-0.249387
-0.25068
-0.252117
-0.253694
-0.255397
-0.257209
-0.259107
-0.261057
-0.263019
-0.264939
-0.266754
-0.26839
-0.269761
-0.27077
-0.271311
-0.271271
-0.270533
-0.268977
-0.266487
-0.262953
-0.258278
-0.252378
-0.245196
-0.236697
-0.226876
-0.21576
-0.203412
-0.189926
-0.175429
-0.160077
-0.144047
-0.127534
-0.110742
-0.0938773
-0.0771377
-0.0607099
-0.044762
-0.0294401
-0.0148659
-0.00113396
0.0116991
0.0235972
0.0345332
0.0445014
0.0535168
0.0616083
0.0688161
0.0751882
0.0807779
0.0856418
0.0898379
0.0934239
0.0964565
0.09899
0.101076
0.102764
0.104099
0.105123
0.105875
0.10639
0.1067
0.106835
0.106822
0.106683
0.106442
0.106116
0.105724
0.105281
0.104799
0.104293
0.103771
0.103244
0.10272
0.102206
0.101708
0.101231
0.100781
0.10036
0.0999705
0.0996153
0.0992959
0.0990135
0.0987693
0.0985644
0.0983995
0.0982754
0.0981923
0.09815
0.0981482
0.0981862
0.0982632
0.0983781
0.0985298
0.0987171
0.0989387
0.0991932
0.0994793
0.0997957
0.100141
0.100514
0.100914
0.101338
0.101787
0.102259
0.102752
0.103267
0.1038
0.104353
0.104924
0.105511
0.106115
0.106735
0.107369
0.108017
0.108679
0.109354
0.110041
0.110739
0.111448
0.112167
0.112897
0.113635
0.114382
0.115138
0.115902
0.116674
0.117454
0.118241
0.119035
0.119837
0.120646
0.121462
0.122285
0.123115
0.123953
0.124798
0.12565
0.12651
0.127378
0.128253
0.129135
0.130026
0.130924
0.13183
0.132744
0.133667
0.134597
0.135536
0.136484
0.137441
0.138407
0.139383
0.140369
0.141367
0.142377
0.1434
0.144439
0.145493
0.146567
0.147663
0.148783
0.149933
0.151117
0.152341
0.153612
0.154935
0.156323
0.157727
0.15927
0.160203
-0.244812
-0.245345
-0.245902
-0.246396
-0.246909
-0.247514
-0.24825
-0.249141
-0.250203
-0.251447
-0.25288
-0.254506
-0.256326
-0.258335
-0.260525
-0.262882
-0.265381
-0.267989
-0.270662
-0.273345
-0.275966
-0.278444
-0.280681
-0.282568
-0.283982
-0.284792
-0.284862
-0.284051
-0.282222
-0.279244
-0.274997
-0.269381
-0.262328
-0.253789
-0.243753
-0.23225
-0.219348
-0.205156
-0.189822
-0.173525
-0.156473
-0.13889
-0.121012
-0.103075
-0.0853022
-0.067904
-0.0510658
-0.0349455
-0.0196704
-0.00532673
0.00803151
0.0203641
0.0316529
0.0419052
0.051146
0.0594146
0.0667604
0.0732401
0.0789146
0.083847
0.0881003
0.0917364
0.0948151
0.0973931
0.0995237
0.101257
0.102638
0.10371
0.104511
0.105077
0.10544
0.105628
0.105668
0.105583
0.105395
0.105122
0.104782
0.10439
0.103958
0.1035
0.103025
0.102544
0.102063
0.101591
0.101134
0.100696
0.100282
0.0998961
0.0995403
0.0992167
0.098927
0.0986726
0.0984548
0.0982748
0.0981332
0.0980309
0.0979681
0.0979449
0.0979607
0.0980152
0.0981075
0.0982365
0.0984013
0.0986006
0.0988332
0.0990979
0.0993933
0.0997182
0.100071
0.100452
0.100857
0.101288
0.101742
0.102219
0.102716
0.103234
0.103772
0.104328
0.104901
0.105492
0.106098
0.106719
0.107356
0.108006
0.108669
0.109345
0.110033
0.110732
0.111442
0.112163
0.112893
0.113632
0.114379
0.115136
0.1159
0.116672
0.117452
0.118239
0.119033
0.119835
0.120644
0.12146
0.122283
0.123113
0.123951
0.124796
0.125648
0.126508
0.127375
0.12825
0.129132
0.130023
0.130921
0.131827
0.13274
0.133662
0.134592
0.13553
0.136477
0.137433
0.138398
0.139372
0.140356
0.141352
0.142359
0.143378
0.144411
0.14546
0.146526
0.147612
0.148721
0.149855
0.151019
0.152216
0.153453
0.154727
0.156047
0.15736
0.158755
0.159617
-0.247956
-0.248446
-0.248986
-0.249507
-0.250094
-0.250812
-0.251701
-0.252785
-0.254081
-0.255602
-0.257359
-0.259359
-0.261608
-0.264106
-0.266848
-0.269822
-0.273006
-0.276369
-0.279864
-0.283431
-0.286995
-0.290461
-0.293722
-0.29665
-0.299105
-0.300934
-0.301975
-0.302063
-0.301033
-0.29873
-0.295007
-0.289742
-0.282854
-0.274273
-0.263986
-0.252022
-0.238459
-0.223422
-0.207082
-0.189649
-0.171367
-0.152499
-0.133319
-0.114098
-0.0950963
-0.0765479
-0.0586617
-0.0416063
-0.0255041
-0.0104378
0.00352847
0.0163635
0.0280637
0.0386483
0.048155
0.056635
0.0641489
0.0707634
0.0765478
0.0815721
0.085905
0.0896129
0.0927587
0.0954016
0.0975964
0.0993939
0.100841
0.101979
0.102847
0.103481
0.103912
0.104168
0.104275
0.104258
0.104135
0.103928
0.103651
0.10332
0.102948
0.102548
0.102129
0.101701
0.101273
0.100851
0.100441
0.100049
0.0996794
0.0993349
0.0990186
0.0987326
0.0984784
0.0982576
0.0980714
0.097921
0.0978074
0.0977314
0.0976932
0.0976929
0.0977302
0.0978046
0.0979154
0.0980617
0.0982423
0.0984564
0.0987025
0.0989796
0.0992864
0.0996217
0.0999844
0.100373
0.100787
0.101225
0.101685
0.102168
0.102671
0.103194
0.103736
0.104296
0.104873
0.105466
0.106076
0.1067
0.107339
0.107991
0.108656
0.109334
0.110023
0.110724
0.111435
0.112156
0.112887
0.113627
0.114375
0.115132
0.115896
0.116669
0.117449
0.118236
0.11903
0.119832
0.120641
0.121457
0.12228
0.12311
0.123948
0.124793
0.125645
0.126505
0.127372
0.128247
0.129129
0.130019
0.130917
0.131822
0.132736
0.133657
0.134586
0.135524
0.136469
0.137424
0.138387
0.139359
0.140341
0.141333
0.142337
0.143351
0.144379
0.145421
0.146478
0.147552
0.148646
0.149762
0.150902
0.152069
0.153264
0.154485
0.15573
0.15695
0.158201
0.158994
-0.251753
-0.252179
-0.252686
-0.253232
-0.253894
-0.254734
-0.255788
-0.257082
-0.258633
-0.260458
-0.262569
-0.264981
-0.267702
-0.270741
-0.274096
-0.27776
-0.281714
-0.285927
-0.290353
-0.294927
-0.299565
-0.304165
-0.3086
-0.312728
-0.316383
-0.319388
-0.321552
-0.322682
-0.322582
-0.321065
-0.317956
-0.313109
-0.306417
-0.297801
-0.287236
-0.274751
-0.260433
-0.244426
-0.226927
-0.208183
-0.188479
-0.168125
-0.147442
-0.126745
-0.106335
-0.0864812
-0.0674113
-0.0492887
-0.0322442
-0.0163758
-0.00173435
0.0116598
0.0238171
0.0347717
0.0445761
0.0532955
0.0610031
0.0677761
0.0736932
0.0788318
0.0832664
0.0870679
0.0903024
0.0930313
0.095311
0.0971931
0.0987243
0.0999474
0.100901
0.101619
0.102134
0.102473
0.102663
0.102725
0.102682
0.10255
0.102347
0.102088
0.101786
0.101452
0.101098
0.100732
0.100363
0.0999978
0.0996425
0.0993024
0.098982
0.0986848
0.0984134
0.0981701
0.0979564
0.0977738
0.0976237
0.0975073
0.0974257
0.0973798
0.0973699
0.0973961
0.0974582
0.0975557
0.097688
0.0978543
0.0980535
0.0982846
0.0985466
0.0988382
0.0991584
0.099506
0.0998799
0.100279
0.100702
0.101149
0.101617
0.102106
0.102616
0.103145
0.103692
0.104257
0.104838
0.105436
0.106048
0.106676
0.107317
0.107972
0.10864
0.10932
0.110011
0.110713
0.111426
0.112148
0.11288
0.11362
0.11437
0.115127
0.115892
0.116665
0.117445
0.118232
0.119027
0.119829
0.120638
0.121454
0.122277
0.123107
0.123945
0.12479
0.125642
0.126501
0.127369
0.128243
0.129125
0.130015
0.130913
0.131818
0.13273
0.133651
0.13458
0.135516
0.13646
0.137413
0.138375
0.139345
0.140324
0.141313
0.142312
0.143321
0.144342
0.145376
0.146423
0.147484
0.148562
0.149657
0.150771
0.151904
0.153055
0.154219
0.155388
0.156516
0.157632
0.158359
-0.255921
-0.256267
-0.256726
-0.257288
-0.258023
-0.258987
-0.260214
-0.261728
-0.263549
-0.265696
-0.268186
-0.271037
-0.274267
-0.277888
-0.281907
-0.28632
-0.291112
-0.296255
-0.3017
-0.307378
-0.313198
-0.319043
-0.324771
-0.330218
-0.335195
-0.339495
-0.342899
-0.345179
-0.346108
-0.345465
-0.343043
-0.338672
-0.332222
-0.323592
-0.312749
-0.299717
-0.28459
-0.267528
-0.24876
-0.228572
-0.207294
-0.185295
-0.162953
-0.140637
-0.118695
-0.0974171
-0.0770415
-0.0577633
-0.0397149
-0.0229892
-0.00763097
0.00635465
0.0189948
0.0303411
0.0404625
0.0494396
0.0573588
0.064309
0.070378
0.0756508
0.0802076
0.0841234
0.0874675
0.0903032
0.0926883
0.0946748
0.09631
0.0976364
0.0986922
0.0995119
0.100126
0.100564
0.100849
0.101005
0.101051
0.101007
0.100889
0.100711
0.100487
0.100228
0.099946
0.0996491
0.0993458
0.0990435
0.0987484
0.0984658
0.0982001
0.0979549
0.0977331
0.0975368
0.0973677
0.0972274
0.0971173
0.0970387
0.0969927
0.0969802
0.0970018
0.0970575
0.0971473
0.0972707
0.0974272
0.0976159
0.097836
0.0980865
0.0983663
0.0986745
0.0990098
0.0993714
0.0997581
0.100169
0.100603
0.101059
0.101536
0.102034
0.102551
0.103086
0.10364
0.10421
0.104797
0.105399
0.106016
0.106647
0.107292
0.10795
0.10862
0.109303
0.109996
0.1107
0.111414
0.112138
0.112871
0.113613
0.114363
0.11512
0.115886
0.116659
0.11744
0.118228
0.119022
0.119824
0.120634
0.12145
0.122273
0.123103
0.123941
0.124786
0.125638
0.126498
0.127365
0.128239
0.129121
0.130011
0.130908
0.131812
0.132725
0.133645
0.134572
0.135508
0.136451
0.137402
0.138361
0.139329
0.140305
0.14129
0.142285
0.143288
0.144302
0.145327
0.146363
0.147411
0.148471
0.149544
0.15063
0.151728
0.152834
0.15394
0.155034
0.156073
0.157067
0.157727
-0.260154
-0.260404
-0.260798
-0.261363
-0.262161
-0.263242
-0.264638
-0.266373
-0.268468
-0.270942
-0.27382
-0.277124
-0.280879
-0.285102
-0.289808
-0.294999
-0.300665
-0.306776
-0.313283
-0.320113
-0.327164
-0.334307
-0.341383
-0.348204
-0.354556
-0.360204
-0.364898
-0.368378
-0.370387
-0.370665
-0.368978
-0.365138
-0.358979
-0.350384
-0.339301
-0.325745
-0.309811
-0.291674
-0.271594
-0.249899
-0.226977
-0.203262
-0.179199
-0.155207
-0.131665
-0.108903
-0.087186
-0.0667207
-0.0476518
-0.0300635
-0.0139876
0.000588203
0.0137098
0.0254475
0.0358883
0.0451283
0.0532677
0.0604064
0.0666413
0.0720643
0.0767608
0.0808096
0.0842825
0.0872445
0.0897541
0.091864
0.0936214
0.0950686
0.0962435
0.0971802
0.0979093
0.0984583
0.0988521
0.0991129
0.0992611
0.0993147
0.0992903
0.0992025
0.0990647
0.0988888
0.0986853
0.0984638
0.0982325
0.0979988
0.097769
0.0975487
0.0973423
0.0971535
0.0969853
0.0968399
0.0967191
0.0966246
0.0965578
0.0965201
0.0965128
0.0965368
0.0965927
0.0966807
0.0968007
0.0969525
0.0971354
0.0973488
0.0975918
0.0978636
0.0981631
0.0984895
0.0988417
0.0992187
0.0996196
0.100044
0.100489
0.100957
0.101444
0.101951
0.102476
0.103019
0.103579
0.104156
0.104748
0.105356
0.105978
0.106613
0.107262
0.107924
0.108597
0.109282
0.109978
0.110684
0.1114
0.112126
0.11286
0.113603
0.114354
0.115113
0.115879
0.116653
0.117434
0.118222
0.119017
0.119819
0.120629
0.121445
0.122268
0.123099
0.123937
0.124781
0.125634
0.126493
0.12736
0.128235
0.129116
0.130006
0.130902
0.131807
0.132718
0.133637
0.134564
0.135498
0.13644
0.13739
0.138347
0.139312
0.140285
0.141267
0.142256
0.143254
0.144261
0.145276
0.1463
0.147334
0.148376
0.149427
0.150485
0.151546
0.152607
0.153656
0.154679
0.155635
0.156519
0.157114
-0.264145
-0.264287
-0.264597
-0.265142
-0.265982
-0.26716
-0.268706
-0.270645
-0.272996
-0.275784
-0.279035
-0.282777
-0.287041
-0.291851
-0.297228
-0.30318
-0.309699
-0.316757
-0.324304
-0.33226
-0.340514
-0.348922
-0.357309
-0.365465
-0.373152
-0.380108
-0.386056
-0.390708
-0.393776
-0.394967
-0.394015
-0.39075
-0.384935
-0.376441
-0.365193
-0.351191
-0.33452
-0.315372
-0.294039
-0.270901
-0.246407
-0.221047
-0.195312
-0.169676
-0.144566
-0.120354
-0.0973421
-0.0757487
-0.0557176
-0.0373229
-0.0205802
-0.00545827
0.00810885
0.0202109
0.0309523
0.0404443
0.0487998
0.056129
0.0625366
0.0681202
0.0729697
0.0771667
0.0807847
0.0838897
0.086541
0.088791
0.0906869
0.0922705
0.0935794
0.0946472
0.0955041
0.0961772
0.096691
0.0970677
0.0973273
0.0974879
0.0975659
0.0975762
0.097532
0.0974454
0.0973271
0.0971867
0.0970328
0.0968727
0.096713
0.0965594
0.0964164
0.0962879
0.0961769
0.0960857
0.0960165
0.0959708
0.0959503
0.0959565
0.0959906
0.0960537
0.0961464
0.096269
0.0964215
0.0966037
0.0968151
0.0970551
0.0973229
0.0976176
0.0979385
0.0982847
0.0986551
0.099049
0.0994655
0.0999037
0.100363
0.100842
0.10134
0.101857
0.102392
0.102943
0.103511
0.104095
0.104694
0.105307
0.105934
0.106575
0.107228
0.107893
0.10857
0.109259
0.109957
0.110666
0.111384
0.112111
0.112847
0.113591
0.114344
0.115103
0.115871
0.116645
0.117426
0.118215
0.119011
0.119813
0.120623
0.121439
0.122263
0.123094
0.123932
0.124777
0.125629
0.126488
0.127355
0.12823
0.129111
0.13
0.130897
0.1318
0.132712
0.13363
0.134556
0.135489
0.13643
0.137377
0.138332
0.139295
0.140265
0.141242
0.142227
0.143218
0.144217
0.145223
0.146236
0.147255
0.148279
0.149307
0.150337
0.151363
0.15238
0.153374
0.15433
0.155209
0.155997
0.156529
-0.267616
-0.267637
-0.267842
-0.268339
-0.269184
-0.27042
-0.272076
-0.274176
-0.276742
-0.279799
-0.283375
-0.287505
-0.292222
-0.297559
-0.303539
-0.310176
-0.317465
-0.325379
-0.333863
-0.342833
-0.352167
-0.36171
-0.371269
-0.380616
-0.389492
-0.397614
-0.40468
-0.410382
-0.414405
-0.416442
-0.416216
-0.413478
-0.408032
-0.399712
-0.388413
-0.374111
-0.356895
-0.336966
-0.314619
-0.290252
-0.264369
-0.237515
-0.210245
-0.183104
-0.156582
-0.131089
-0.106945
-0.0843778
-0.0635262
-0.0444514
-0.027151
-0.011574
0.00236522
0.0147748
0.0257748
0.03549
0.0440438
0.0515545
0.0581328
0.0638806
0.0688905
0.0732457
0.0770208
0.0802821
0.0830885
0.0854923
0.08754
0.0892731
0.0907284
0.091939
0.0929347
0.0937422
0.0943858
0.0948873
0.0952667
0.0955421
0.0957299
0.0958449
0.0959006
0.0959092
0.0958816
0.0958275
0.0957556
0.0956736
0.0955882
0.0955051
0.0954291
0.0953643
0.0953137
0.09528
0.0952651
0.095271
0.0952995
0.095352
0.09543
0.0955345
0.0956662
0.0958256
0.0960126
0.0962271
0.0964688
0.0967371
0.0970313
0.0973506
0.0976943
0.0980616
0.0984516
0.0988636
0.0992968
0.0997503
0.100224
0.100716
0.101226
0.101754
0.102298
0.102859
0.103436
0.104027
0.104633
0.105252
0.105886
0.106531
0.107189
0.107859
0.10854
0.109232
0.109934
0.110645
0.111366
0.112095
0.112833
0.113578
0.114332
0.115092
0.115861
0.116636
0.117418
0.118207
0.119003
0.119806
0.120616
0.121433
0.122257
0.123088
0.123926
0.124771
0.125623
0.126483
0.12735
0.128224
0.129106
0.129994
0.13089
0.131794
0.132704
0.133622
0.134547
0.135479
0.136418
0.137364
0.138317
0.139277
0.140244
0.141217
0.142197
0.143182
0.144174
0.14517
0.146171
0.147176
0.148182
0.149188
0.15019
0.151182
0.152156
0.153099
0.153993
0.154802
0.155506
0.155978
-0.270339
-0.270236
-0.270316
-0.270727
-0.271527
-0.272759
-0.274457
-0.276646
-0.279351
-0.282596
-0.286414
-0.290841
-0.295913
-0.301667
-0.308131
-0.315321
-0.323233
-0.331839
-0.341082
-0.350869
-0.361072
-0.371524
-0.382016
-0.392306
-0.40212
-0.411158
-0.419106
-0.425644
-0.430451
-0.43321
-0.433639
-0.431489
-0.426517
-0.418527
-0.40738
-0.393024
-0.375514
-0.355034
-0.331894
-0.306538
-0.279515
-0.251434
-0.222924
-0.194585
-0.166953
-0.140468
-0.115466
-0.0921754
-0.0707256
-0.0511629
-0.0334668
-0.0175677
-0.00336215
0.00927302
0.0204707
0.0303654
0.039088
0.0467619
0.0535014
0.0594104
0.0645825
0.0691013
0.0730411
0.0764676
0.0794389
0.0820066
0.0842164
0.0861088
0.0877201
0.0890827
0.0902259
0.0911759
0.0919569
0.0925905
0.0930965
0.0934929
0.0937963
0.0940216
0.0941824
0.0942911
0.0943587
0.0943952
0.0944095
0.0944094
0.0944018
0.0943926
0.0943869
0.0943887
0.0944014
0.0944276
0.0944698
0.0945298
0.0946095
0.0947107
0.0948347
0.0949827
0.0951555
0.0953534
0.0955768
0.0958254
0.0960989
0.0963971
0.0967191
0.0970643
0.0974321
0.0978218
0.0982325
0.0986637
0.0991146
0.0995845
0.100073
0.100579
0.101102
0.101641
0.102197
0.102767
0.103353
0.103953
0.104566
0.105193
0.105832
0.106484
0.107147
0.107821
0.108507
0.109202
0.109907
0.110621
0.111345
0.112076
0.112816
0.113563
0.114318
0.11508
0.115849
0.116625
0.117408
0.118198
0.118995
0.119798
0.120609
0.121426
0.12225
0.123081
0.12392
0.124765
0.125618
0.126477
0.127344
0.128218
0.1291
0.129988
0.130884
0.131787
0.132697
0.133614
0.134538
0.135469
0.136407
0.137351
0.138302
0.139259
0.140223
0.141192
0.142167
0.143146
0.14413
0.145118
0.146107
0.147097
0.148086
0.14907
0.150045
0.151005
0.151939
0.152834
0.153671
0.154418
0.155047
0.155465
-0.272164
-0.27194
-0.271878
-0.27216
-0.272849
-0.273993
-0.275635
-0.277809
-0.280541
-0.283861
-0.2878