/*--------------------------------*- C++ -*----------------------------------*\
  =========                 |
  \\      /  F ield         | OpenFOAM: The Open Source CFD Toolbox
   \\    /   O peration     | Website:  https://openfoam.org
    \\  /    A nd           | Version:  8
     \\/     M anipulation  |
\*---------------------------------------------------------------------------*/
FoamFile
{
    version     2.0;
    format      ascii;
    class       surfaceScalarField;
    location    "0.16";
    object      phi;
}
// * * * * * * * * * * * * * * * * * * * * * * * * * * * * * * * * * * * * * //

dimensions      [0 3 -1 0 0 0 0];

internalField   nonuniform List<scalar> 
24170
(
1.29502e-07
1.85855e-07
6.31175e-08
6.63843e-08
4.60791e-08
1.70384e-08
3.96858e-08
6.3933e-09
3.59646e-08
3.72114e-09
3.32868e-08
2.67779e-09
3.13984e-08
1.88848e-09
3.00844e-08
1.31399e-09
2.91673e-08
9.17108e-10
2.85494e-08
6.17823e-10
2.81778e-08
3.71663e-10
2.8022e-08
1.55732e-10
2.80727e-08
-5.06697e-11
2.83449e-08
-2.72233e-10
2.89173e-08
-5.724e-10
3.00323e-08
-1.11501e-09
3.2764e-08
-2.73164e-09
-1.34328e-08
4.61968e-08
2.75985e-07
2.47861e-07
1.94282e-07
1.48088e-07
1.50715e-07
6.06055e-08
1.28003e-07
2.91049e-08
1.15203e-07
1.65209e-08
1.06774e-07
1.11072e-08
1.0076e-07
7.90214e-09
9.64547e-08
5.61937e-09
9.3395e-08
3.97681e-09
9.12757e-08
2.73711e-09
8.99161e-08
1.73123e-09
8.92126e-08
8.59285e-10
8.91196e-08
4.23684e-11
8.9654e-08
-8.06691e-10
9.09347e-08
-1.85311e-09
9.33227e-08
-3.50302e-09
9.76124e-08
-7.02133e-09
-1.92794e-08
1.03459e-07
3.6727e-07
2.42842e-07
3.13786e-07
2.01572e-07
2.63647e-07
1.10744e-07
2.28491e-07
6.42603e-08
2.05988e-07
3.9024e-08
1.91157e-07
2.5939e-08
1.80625e-07
1.84335e-08
1.72952e-07
1.3293e-08
1.67386e-07
9.54261e-09
1.63432e-07
6.69067e-09
1.60775e-07
4.38866e-09
1.59223e-07
2.41074e-09
1.58678e-07
5.87346e-10
1.59127e-07
-1.25483e-09
1.60654e-07
-3.38071e-09
1.635e-07
-6.34873e-09
1.6775e-07
-1.12711e-08
-2.24305e-08
1.70901e-07
4.23622e-07
2.0747e-07
4.05558e-07
2.19636e-07
3.6808e-07
1.48222e-07
3.32113e-07
1.00228e-07
3.04024e-07
6.71127e-08
2.83823e-07
4.61395e-08
2.6911e-07
3.31465e-08
2.58169e-07
2.42347e-08
2.50041e-07
1.76703e-08
2.44106e-07
1.26253e-08
2.39948e-07
8.54742e-09
2.37297e-07
5.06118e-09
2.35996e-07
1.88876e-09
2.35974e-07
-1.23338e-09
2.37233e-07
-4.63989e-09
2.39789e-07
-8.90395e-09
2.43331e-07
-1.48137e-08
-2.45779e-08
2.45479e-07
4.59049e-07
1.64536e-07
4.68102e-07
2.10584e-07
4.514e-07
1.64924e-07
4.25868e-07
1.2576e-07
4.00163e-07
9.2817e-08
3.78689e-07
6.76137e-08
3.61809e-07
5.00269e-08
3.48688e-07
3.73552e-08
3.38601e-07
2.77571e-08
3.30994e-07
2.02327e-08
3.25449e-07
1.40927e-08
3.21672e-07
8.83793e-09
3.19467e-07
4.0938e-09
3.18708e-07
-4.74092e-10
3.19299e-07
-5.2313e-09
3.2107e-07
-1.06752e-08
3.23539e-07
-1.72819e-08
-2.6007e-08
3.24968e-07
4.8517e-07
1.25348e-07
5.08845e-07
1.86909e-07
5.10627e-07
1.63143e-07
5.00338e-07
1.36049e-07
4.83982e-07
1.09173e-07
4.66885e-07
8.47101e-08
4.51597e-07
6.53151e-08
4.38715e-07
5.02372e-08
4.28235e-07
3.82375e-08
4.19971e-07
2.84959e-08
4.13687e-07
2.03766e-08
4.09167e-07
1.33588e-08
4.06233e-07
7.02713e-09
4.04738e-07
1.02134e-09
4.04522e-07
-5.01556e-09
4.05312e-07
-1.14653e-08
4.06592e-07
-1.85617e-08
-2.66365e-08
4.07221e-07
5.09642e-07
9.36975e-08
5.38004e-07
1.58547e-07
5.51192e-07
1.49954e-07
5.54182e-07
1.33059e-07
5.49467e-07
1.13888e-07
5.40673e-07
9.35045e-08
5.30737e-07
7.52511e-08
5.21134e-07
5.98399e-08
5.12564e-07
4.68078e-08
5.05339e-07
3.57206e-08
4.99544e-07
2.61716e-08
4.9515e-07
1.77526e-08
4.92081e-07
1.00967e-08
4.90225e-07
2.87708e-09
4.89412e-07
-4.20291e-09
4.89359e-07
-1.14124e-08
4.89613e-07
-1.8815e-08
-2.64848e-08
4.89461e-07
5.36403e-07
6.95928e-08
5.63897e-07
1.31054e-07
5.81811e-07
1.3204e-07
5.92881e-07
1.21989e-07
5.97629e-07
1.0914e-07
5.97517e-07
9.36158e-08
5.94621e-07
7.81469e-08
5.90397e-07
6.40642e-08
5.85774e-07
5.14309e-08
5.81361e-07
4.01333e-08
5.77516e-07
3.00173e-08
5.74413e-07
2.08547e-08
5.72116e-07
1.23946e-08
5.70594e-07
4.39908e-09
5.69727e-07
-3.33644e-09
5.69287e-07
-1.09723e-08
5.6894e-07
-1.84683e-08
-2.58089e-08
5.68264e-07
5.66956e-07
5.1705e-08
5.9138e-07
1.0663e-07
6.09949e-07
1.1347e-07
6.24279e-07
1.07659e-07
6.34489e-07
9.8931e-08
6.40717e-07
8.73871e-08
6.43995e-07
7.4869e-08
6.45291e-07
6.2768e-08
6.45334e-07
5.13884e-08
6.44702e-07
4.07654e-08
6.43823e-07
3.0896e-08
6.42975e-07
2.17025e-08
6.42313e-07
1.30573e-08
6.41884e-07
4.82746e-09
6.41641e-07
-3.09295e-09
6.41439e-07
-1.07703e-08
6.41079e-07
-1.81088e-08
-2.50617e-08
6.40332e-07
6.01635e-07
3.85463e-08
6.22539e-07
8.57262e-08
6.40044e-07
9.59648e-08
6.54776e-07
9.29276e-08
6.67065e-07
8.66422e-08
6.76624e-07
7.78276e-08
6.83828e-07
6.7665e-08
6.89198e-07
5.73988e-08
6.93146e-07
4.74397e-08
6.96045e-07
3.78665e-08
6.98219e-07
2.87227e-08
6.99911e-07
2.00097e-08
7.01283e-07
1.16855e-08
7.02411e-07
3.7001e-09
7.03293e-07
-3.97544e-09
7.03864e-07
-1.13408e-08
7.04033e-07
-1.8278e-08
-2.47233e-08
7.03694e-07
6.40389e-07
2.88709e-08
6.57979e-07
6.81361e-08
6.7399e-07
7.99546e-08
6.88007e-07
7.89106e-08
7.00497e-07
7.41517e-08
7.11197e-07
6.71274e-08
7.20198e-07
5.86639e-08
7.2778e-07
4.98168e-08
7.34154e-07
4.10657e-08
7.395e-07
3.25207e-08
7.43994e-07
2.42288e-08
7.47785e-07
1.62188e-08
7.50977e-07
8.49386e-09
7.53625e-07
1.05226e-09
7.55742e-07
-6.09281e-09
7.57304e-07
-1.29033e-08
7.5829e-07
-1.92636e-08
-2.50986e-08
7.58665e-07
5.74064e-07
2.26175e-08
5.866e-07
5.56e-08
5.99004e-07
6.75509e-08
6.10167e-07
6.77475e-08
6.20351e-07
6.39679e-08
6.29453e-07
5.80255e-08
6.37473e-07
5.06438e-08
6.44551e-07
4.27384e-08
6.50801e-07
3.4816e-08
6.563e-07
2.70212e-08
6.61122e-07
1.94072e-08
6.65328e-07
1.2013e-08
6.6896e-07
4.86127e-09
6.72043e-07
-2.03094e-09
6.74584e-07
-8.6336e-09
6.76573e-07
-1.48925e-08
6.78017e-07
-2.07074e-08
-2.60062e-08
6.78925e-07
6.9774e-07
1.70465e-08
7.09901e-07
4.34388e-08
7.2277e-07
5.46827e-08
7.34739e-07
5.57786e-08
7.45887e-07
5.28194e-08
7.5609e-07
4.78226e-08
7.65286e-07
4.14473e-08
7.73584e-07
3.44407e-08
7.81087e-07
2.73133e-08
7.87853e-07
2.02554e-08
7.93923e-07
1.33369e-08
7.9933e-07
6.60645e-09
8.0409e-07
1.01182e-10
8.08209e-07
-6.14968e-09
8.11683e-07
-1.21082e-08
8.14509e-07
-1.77184e-08
8.16706e-07
-2.29042e-08
-2.76013e-08
8.18301e-07
8.48611e-07
1.21995e-08
8.60038e-07
3.20118e-08
8.73098e-07
4.16226e-08
8.85747e-07
4.31294e-08
8.97771e-07
4.0795e-08
9.09002e-07
3.6592e-08
9.19297e-07
3.11527e-08
9.28695e-07
2.50425e-08
9.37283e-07
1.87251e-08
9.45114e-07
1.24248e-08
9.52216e-07
6.23464e-09
9.58609e-07
2.13071e-10
9.64304e-07
-5.59324e-09
9.69299e-07
-1.11453e-08
9.73593e-07
-1.64014e-08
9.77188e-07
-2.13133e-08
9.80112e-07
-2.58292e-08
-2.99001e-08
9.82411e-07
1.03274e-06
8.02289e-09
1.04323e-06
2.15176e-08
1.05622e-06
2.86367e-08
1.06943e-06
2.99179e-08
1.08228e-06
2.79441e-08
1.09452e-06
2.43553e-08
1.10592e-06
1.97502e-08
1.11643e-06
1.45338e-08
1.12608e-06
9.07355e-09
1.13491e-06
3.59194e-09
1.14295e-06
-1.8025e-09
1.15021e-06
-7.04603e-09
1.1567e-06
-1.20867e-08
1.16244e-06
-1.68806e-08
1.16742e-06
-2.13882e-08
1.17168e-06
-2.55717e-08
1.17525e-06
-2.93977e-08
-3.28351e-08
1.17818e-06
1.25747e-06
4.38356e-09
1.26708e-06
1.1909e-08
1.27984e-06
1.58735e-08
1.29354e-06
1.62183e-08
1.30723e-06
1.42517e-08
1.32051e-06
1.10777e-08
1.33308e-06
7.17972e-09
1.34479e-06
2.82764e-09
1.35559e-06
-1.72852e-09
1.36549e-06
-6.31198e-09
1.37451e-06
-1.08202e-08
1.38265e-06
-1.5192e-08
1.38995e-06
-1.9379e-08
1.39641e-06
-2.33407e-08
1.40206e-06
-2.70435e-08
1.40695e-06
-3.04593e-08
1.41112e-06
-3.35674e-08
-3.635e-08
1.41463e-06
1.53174e-06
1.07606e-09
1.54081e-06
2.83652e-09
1.55353e-06
3.15278e-09
1.56786e-06
1.89657e-09
1.58256e-06
-4.55273e-10
1.59705e-06
-3.40796e-09
1.61094e-06
-6.71045e-09
1.62399e-06
-1.02266e-08
1.6361e-06
-1.38326e-08
1.64721e-06
-1.74269e-08
1.65733e-06
-2.0942e-08
1.66647e-06
-2.4333e-08
1.67466e-06
-2.75639e-08
1.68192e-06
-3.06041e-08
1.68831e-06
-3.34287e-08
1.69387e-06
-3.60178e-08
1.69866e-06
-3.83585e-08
-4.04407e-08
1.70275e-06
1.86649e-06
-2.2332e-09
1.87585e-06
-6.52551e-09
1.88939e-06
-1.03833e-08
1.90505e-06
-1.37636e-08
1.92138e-06
-1.67893e-08
1.93759e-06
-1.96184e-08
1.95322e-06
-2.23383e-08
1.96797e-06
-2.49735e-08
1.98166e-06
-2.75273e-08
1.99423e-06
-2.99978e-08
2.00567e-06
-3.2377e-08
2.01599e-06
-3.46501e-08
2.02522e-06
-3.67995e-08
2.03342e-06
-3.88076e-08
2.04065e-06
-4.06585e-08
2.04698e-06
-4.23389e-08
2.05246e-06
-4.38394e-08
-4.51527e-08
2.05717e-06
2.2753e-06
-6.28499e-09
2.28693e-06
-1.81617e-08
2.30365e-06
-2.71003e-08
2.32276e-06
-3.28726e-08
2.34246e-06
-3.64907e-08
2.36184e-06
-3.89968e-08
2.38038e-06
-4.08841e-08
2.39776e-06
-4.23538e-08
2.4138e-06
-4.35636e-08
2.42844e-06
-4.46374e-08
2.4417e-06
-4.56362e-08
2.45363e-06
-4.65779e-08
2.46429e-06
-4.74629e-08
2.47377e-06
-4.82853e-08
2.48214e-06
-4.90356e-08
2.48951e-06
-4.97025e-08
2.49595e-06
-5.02764e-08
-5.07463e-08
2.50154e-06
1.66682e-06
-1.0406e-08
1.6781e-06
-2.94362e-08
1.6933e-06
-4.23008e-08
1.70957e-06
-4.91418e-08
1.72559e-06
-5.25101e-08
1.7409e-06
-5.43095e-08
1.75523e-06
-5.52096e-08
1.76839e-06
-5.55149e-08
1.78035e-06
-5.55245e-08
1.79116e-06
-5.54455e-08
1.80088e-06
-5.53628e-08
1.8096e-06
-5.52997e-08
1.8174e-06
-5.52599e-08
1.82435e-06
-5.52375e-08
1.83054e-06
-5.52189e-08
1.83602e-06
-5.51877e-08
1.84087e-06
-5.51282e-08
-5.50236e-08
1.84515e-06
1.45287e-06
-1.58126e-08
1.46706e-06
-4.36263e-08
1.48459e-06
-5.98301e-08
1.50189e-06
-6.64354e-08
1.51813e-06
-6.87499e-08
1.53322e-06
-6.94064e-08
1.54701e-06
-6.89969e-08
1.55944e-06
-6.79427e-08
1.57061e-06
-6.66933e-08
1.58064e-06
-6.54824e-08
1.58965e-06
-6.43715e-08
1.59772e-06
-6.33692e-08
1.60493e-06
-6.24715e-08
1.61136e-06
-6.16637e-08
1.61706e-06
-6.09229e-08
1.6221e-06
-6.0226e-08
1.62652e-06
-5.95494e-08
-5.88794e-08
1.63038e-06
1.26791e-06
-2.36301e-08
1.28679e-06
-6.25048e-08
1.30752e-06
-8.05587e-08
1.32633e-06
-8.52459e-08
1.3434e-06
-8.58245e-08
1.35892e-06
-8.49196e-08
1.37274e-06
-8.28191e-08
1.38495e-06
-8.01548e-08
1.39573e-06
-7.74782e-08
1.40522e-06
-7.49672e-08
1.41349e-06
-7.26387e-08
1.42061e-06
-7.04939e-08
1.42667e-06
-6.85272e-08
1.43172e-06
-6.67194e-08
1.43584e-06
-6.50442e-08
1.4391e-06
-6.3478e-08
1.44154e-06
-6.19929e-08
-6.0591e-08
1.44325e-06
1.109e-06
-3.56512e-08
1.13438e-06
-8.78858e-08
1.15874e-06
-1.04919e-07
1.1795e-06
-1.06012e-07
1.19791e-06
-1.04232e-07
1.2139e-06
-1.00911e-07
1.22728e-06
-9.61925e-08
1.23823e-06
-9.11049e-08
1.24699e-06
-8.62375e-08
1.25372e-06
-8.17007e-08
1.25859e-06
-7.75129e-08
1.26179e-06
-7.36927e-08
1.2635e-06
-7.02325e-08
1.26388e-06
-6.71009e-08
1.26309e-06
-6.42583e-08
1.26128e-06
-6.16684e-08
1.25858e-06
-5.92877e-08
-5.71202e-08
1.25511e-06
9.74021e-07
-5.46998e-08
1.00757e-06
-1.21437e-07
1.03551e-06
-1.32856e-07
1.05781e-06
-1.28317e-07
1.07578e-06
-1.22197e-07
1.08881e-06
-1.13946e-07
1.09714e-06
-1.04515e-07
1.10152e-06
-9.54929e-08
1.10266e-06
-8.73783e-08
1.10114e-06
-8.01766e-08
1.09749e-06
-7.38575e-08
1.09216e-06
-6.8366e-08
1.08553e-06
-6.36058e-08
1.0779e-06
-5.94681e-08
1.06949e-06
-5.58528e-08
1.0605e-06
-5.26742e-08
1.05106e-06
-4.9852e-08
-4.73592e-08
1.0413e-06
8.61418e-07
-8.47668e-08
9.03361e-07
-1.63379e-07
9.31848e-07
-1.61343e-07
9.4995e-07
-1.46418e-07
9.58848e-07
-1.31095e-07
9.5934e-07
-1.14438e-07
9.53763e-07
-9.89385e-08
9.44253e-07
-8.5983e-08
9.32242e-07
-7.53677e-08
9.18731e-07
-6.6665e-08
9.04422e-07
-5.95489e-08
8.89777e-07
-5.37209e-08
8.75081e-07
-4.891e-08
8.6051e-07
-4.48971e-08
8.4617e-07
-4.15128e-08
8.32122e-07
-3.86254e-08
8.184e-07
-3.61309e-08
-3.39677e-08
8.05009e-07
7.68839e-07
-1.29873e-07
8.12415e-07
-2.06955e-07
8.29167e-07
-1.78096e-07
8.28313e-07
-1.45563e-07
8.14848e-07
-1.17631e-07
7.94111e-07
-9.37013e-08
7.70765e-07
-7.55926e-08
7.47228e-07
-6.24454e-08
7.24524e-07
-5.26644e-08
7.03092e-07
-4.5233e-08
6.83059e-07
-3.95152e-08
6.64379e-07
-3.50417e-08
6.46943e-07
-3.14732e-08
6.30621e-07
-2.85754e-08
6.15292e-07
-2.61838e-08
6.00844e-07
-2.41771e-08
5.87183e-07
-2.24699e-08
-2.09956e-08
5.74211e-07
6.8763e-07
-1.87456e-07
7.10336e-07
-2.29661e-07
6.94247e-07
-1.62007e-07
6.61378e-07
-1.12694e-07
6.23116e-07
-7.93684e-08
5.86797e-07
-5.73827e-08
5.55081e-07
-4.38769e-08
5.27788e-07
-3.51518e-08
5.04156e-07
-2.90325e-08
4.83498e-07
-2.45755e-08
4.65235e-07
-2.12521e-08
4.48898e-07
-1.87043e-08
4.34125e-07
-1.67004e-08
4.20641e-07
-1.50912e-08
4.08232e-07
-1.37751e-08
3.96732e-07
-1.26771e-08
3.86012e-07
-1.17499e-08
-1.09427e-08
3.75959e-07
5.93702e-07
-2.32671e-07
5.61927e-07
-1.97886e-07
5.04074e-07
-1.04155e-07
4.48979e-07
-5.75988e-08
4.0458e-07
-3.49691e-08
3.71162e-07
-2.39646e-08
3.45518e-07
-1.82332e-08
3.24904e-07
-1.45374e-08
3.07784e-07
-1.19124e-08
2.93238e-07
-1.00303e-08
2.80634e-07
-8.64764e-09
2.69524e-07
-7.59431e-09
2.59593e-07
-6.76906e-09
2.5061e-07
-6.10881e-09
2.42406e-07
-5.57048e-09
2.3485e-07
-5.12105e-09
2.27844e-07
-4.74398e-09
-4.40756e-09
2.21309e-07
4.48472e-07
-2.03656e-07
3.50818e-07
-1.00233e-07
2.79485e-07
-3.28214e-08
2.34936e-07
-1.30493e-08
2.07249e-07
-7.2826e-09
1.88609e-07
-5.32422e-09
1.74547e-07
-4.17201e-09
1.63309e-07
-3.29883e-09
1.54081e-07
-2.68434e-09
1.4631e-07
-2.25974e-09
1.39613e-07
-1.95e-09
1.33731e-07
-1.71295e-09
1.28489e-07
-1.52706e-09
1.23759e-07
-1.37848e-09
1.19446e-07
-1.25746e-09
1.15481e-07
-1.15562e-09
1.11808e-07
-1.07189e-09
-9.91825e-10
1.08393e-07
2.12019e-07
1.11787e-07
7.89651e-08
6.59158e-08
5.86332e-08
5.3309e-08
4.9137e-08
4.58382e-08
4.31538e-08
4.08941e-08
3.89441e-08
3.72311e-08
3.57041e-08
3.43256e-08
3.30681e-08
3.19125e-08
3.08406e-08
2.98488e-08
2.10448e-10
-2.10448e-10
9.22247e-11
1.18223e-10
-6.00001e-10
6.92225e-10
-1.86784e-09
1.26784e-09
-3.61419e-09
1.74635e-09
-5.73027e-09
2.11608e-09
-8.12961e-09
2.39934e-09
-1.07587e-08
2.62907e-09
-1.35954e-08
2.83667e-09
-1.66417e-08
3.04632e-09
-1.99154e-08
3.27369e-09
-2.34424e-08
3.52706e-09
-2.72516e-08
3.80921e-09
-3.13709e-08
4.11925e-09
-3.58249e-08
4.45398e-09
-4.06335e-08
4.80866e-09
-4.5811e-08
5.17745e-09
-5.13644e-08
5.55343e-09
-5.7293e-08
5.92863e-09
-6.35869e-08
6.2939e-09
-7.02258e-08
6.63888e-09
-7.71779e-08
6.95204e-09
-8.43987e-08
7.22084e-09
-9.18307e-08
7.43197e-09
-9.94024e-08
7.57168e-09
-1.07029e-07
7.62635e-09
-1.14612e-07
7.583e-09
-1.22042e-07
7.42995e-09
-1.29199e-07
7.15749e-09
-1.35958e-07
6.75855e-09
-1.42187e-07
6.22932e-09
-1.47757e-07
5.56981e-09
-1.52541e-07
4.78416e-09
-1.56422e-07
3.88063e-09
-1.59293e-07
2.8713e-09
-1.61064e-07
1.77133e-09
-1.61663e-07
5.99056e-10
-1.61045e-07
-6.18549e-10
-1.5919e-07
-1.85453e-09
-1.56106e-07
-3.08377e-09
-1.51825e-07
-4.28132e-09
-1.46402e-07
-5.42309e-09
-1.39915e-07
-6.48691e-09
-1.32462e-07
-7.45333e-09
-1.24156e-07
-8.30628e-09
-1.15122e-07
-9.03353e-09
-1.05495e-07
-9.62691e-09
-9.54127e-08
-1.00824e-08
-8.50128e-08
-1.03999e-08
-7.44296e-08
-1.05832e-08
-6.37904e-08
-1.06392e-08
-5.32126e-08
-1.05778e-08
-4.28015e-08
-1.04111e-08
-3.26484e-08
-1.01531e-08
-2.28288e-08
-9.81962e-09
-1.34087e-08
-9.42005e-09
-4.44518e-09
-8.96353e-09
4.01967e-09
-8.46486e-09
1.19574e-08
-7.93769e-09
1.9351e-08
-7.39359e-09
2.61934e-08
-6.84243e-09
3.24864e-08
-6.29298e-09
3.8239e-08
-5.75265e-09
4.34665e-08
-5.22748e-09
4.81888e-08
-4.72226e-09
5.24294e-08
-4.24064e-09
5.62146e-08
-3.78522e-09
5.95723e-08
-3.35771e-09
6.25314e-08
-2.95906e-09
6.51209e-08
-2.58957e-09
6.737e-08
-2.24903e-09
6.93068e-08
-1.93681e-09
7.09587e-08
-1.65195e-09
7.2352e-08
-1.39327e-09
7.35114e-08
-1.15944e-09
7.44604e-08
-9.48994e-10
7.52209e-08
-7.60432e-10
7.58131e-08
-5.92226e-10
7.62559e-08
-4.4286e-10
7.65668e-08
-3.10855e-10
7.67616e-08
-1.94786e-10
7.68549e-08
-9.32807e-11
7.68599e-08
-4.99413e-12
7.67885e-08
7.1385e-11
7.6652e-08
1.36448e-10
7.64601e-08
1.91931e-10
7.62215e-08
2.3858e-10
7.59442e-08
2.77286e-10
7.56353e-08
3.08947e-10
7.53009e-08
3.34404e-10
7.49464e-08
3.54458e-10
7.45766e-08
3.69824e-10
7.41955e-08
3.8112e-10
7.38066e-08
3.88855e-10
7.34132e-08
3.93466e-10
7.30178e-08
3.95339e-10
7.2623e-08
3.94837e-10
7.22307e-08
3.92314e-10
7.18426e-08
3.88098e-10
7.14601e-08
3.82495e-10
7.10843e-08
3.75783e-10
7.07161e-08
3.68211e-10
7.03561e-08
3.59995e-10
7.00048e-08
3.5133e-10
6.96624e-08
3.42374e-10
6.93291e-08
3.33271e-10
6.9005e-08
3.24136e-10
6.86899e-08
3.15067e-10
6.83838e-08
3.06144e-10
6.80863e-08
2.97431e-10
6.77973e-08
2.88981e-10
6.75165e-08
2.80832e-10
6.72435e-08
2.73016e-10
6.69779e-08
2.65556e-10
6.67195e-08
2.58469e-10
6.64677e-08
2.51768e-10
6.62223e-08
2.45455e-10
6.59827e-08
2.3954e-10
6.57487e-08
2.34012e-10
6.55198e-08
2.28874e-10
6.52957e-08
2.24107e-10
6.5076e-08
2.19701e-10
6.48604e-08
2.15635e-10
6.46485e-08
2.11893e-10
6.444e-08
2.08453e-10
6.42347e-08
2.05301e-10
6.40323e-08
2.02429e-10
6.38325e-08
1.99823e-10
6.3635e-08
1.97479e-10
6.34396e-08
1.95391e-10
6.32461e-08
1.93547e-10
6.30541e-08
1.91944e-10
6.28636e-08
1.90569e-10
6.26741e-08
1.89413e-10
6.24857e-08
1.88465e-10
6.2298e-08
1.87713e-10
6.21108e-08
1.87143e-10
6.19241e-08
1.86749e-10
6.17376e-08
1.86514e-10
6.15511e-08
1.86431e-10
6.13646e-08
1.86492e-10
6.1178e-08
1.86686e-10
6.09909e-08
1.8701e-10
6.08035e-08
1.87453e-10
6.06155e-08
1.88009e-10
6.04268e-08
1.88671e-10
6.02374e-08
1.89434e-10
6.00471e-08
1.90296e-10
5.98558e-08
1.91258e-10
5.96635e-08
1.92322e-10
5.947e-08
1.93498e-10
5.92752e-08
1.94802e-10
5.90789e-08
1.96255e-10
5.88811e-08
1.97883e-10
5.86813e-08
1.9972e-10
5.84795e-08
2.01809e-10
5.82753e-08
2.04204e-10
5.80684e-08
2.06969e-10
5.78582e-08
2.10185e-10
5.76442e-08
2.13953e-10
5.74258e-08
2.18403e-10
5.72021e-08
2.23694e-10
5.69721e-08
2.30033e-10
5.67344e-08
2.3768e-10
5.64874e-08
2.46968e-10
5.62291e-08
2.58327e-10
5.59568e-08
2.72304e-10
5.56672e-08
2.8962e-10
5.5356e-08
3.11209e-10
5.50177e-08
3.38312e-10
5.46451e-08
3.72593e-10
5.42287e-08
4.16351e-10
5.3756e-08
4.72723e-10
5.32092e-08
5.46775e-10
5.25647e-08
6.44536e-10
5.17802e-08
7.84541e-10
5.08117e-08
9.68435e-10
4.94368e-08
1.37487e-09
4.7625e-08
1.81186e-09
4.18349e-09
4.34415e-08
-6.76663e-10
4.66215e-10
-2.78985e-09
2.23141e-09
-6.30239e-09
4.20476e-09
-1.10241e-08
5.98954e-09
-1.67295e-08
7.45179e-09
-2.32119e-08
8.59844e-09
-3.03134e-08
9.50088e-09
-3.79333e-08
1.0249e-08
-4.60212e-08
1.09246e-08
-5.45645e-08
1.15896e-08
-6.35741e-08
1.22833e-08
-7.3072e-08
1.3025e-08
-8.30821e-08
1.38193e-08
-9.36229e-08
1.466e-08
-1.04703e-07
1.5534e-08
-1.16318e-07
1.64233e-08
-1.28446e-07
1.73063e-08
-1.41051e-07
1.81585e-08
-1.54075e-07
1.89526e-08
-1.67441e-07
1.96595e-08
-1.8105e-07
2.02479e-08
-1.94784e-07
2.06856e-08
-2.08503e-07
2.09404e-08
-2.22052e-07
2.09804e-08
-2.35256e-07
2.07763e-08
-2.47932e-07
2.03018e-08
-2.59884e-07
1.95354e-08
-2.70915e-07
1.84614e-08
-2.80829e-07
1.70714e-08
-2.89435e-07
1.53645e-08
-2.96555e-07
1.33487e-08
-3.02026e-07
1.10408e-08
-3.05708e-07
8.46624e-09
-3.07486e-07
5.65892e-09
-3.07276e-07
2.66145e-09
-3.05027e-07
-4.78234e-10
-3.00724e-07
-3.70375e-09
-2.94382e-07
-6.96064e-09
-2.86044e-07
-1.01926e-08
-2.75784e-07
-1.33432e-08
-2.63707e-07
-1.63581e-08
-2.49944e-07
-1.91869e-08
-2.34646e-07
-2.17844e-08
-2.17987e-07
-2.41121e-08
-2.00154e-07
-2.61393e-08
-1.81344e-07
-2.78436e-08
-1.6176e-07
-2.92113e-08
-1.41605e-07
-3.02372e-08
-1.2108e-07
-3.09246e-08
-1.00379e-07
-3.12842e-08
-7.96846e-08
-3.1334e-08
-5.91645e-08
-3.10979e-08
-3.89709e-08
-3.06047e-08
-1.92434e-08
-2.98806e-08
-1.14444e-10
-2.89486e-08
1.83066e-08
-2.78411e-08
3.59375e-08
-2.65944e-08
5.27108e-08
-2.52382e-08
6.8575e-08
-2.38019e-08
8.34946e-08
-2.23132e-08
9.74491e-08
-2.07969e-08
1.10431e-07
-1.9275e-08
1.22445e-07
-1.77666e-08
1.33505e-07
-1.62878e-08
1.43635e-07
-1.48519e-08
1.52864e-07
-1.34696e-08
1.61228e-07
-1.21491e-08
1.68767e-07
-1.08964e-08
1.75523e-07
-9.71583e-09
1.81543e-07
-8.60969e-09
1.86873e-07
-7.57903e-09
1.9156e-07
-6.62368e-09
1.95651e-07
-5.74248e-09
1.99191e-07
-4.93348e-09
2.02226e-07
-4.19414e-09
2.04798e-07
-3.52143e-09
2.0695e-07
-2.91204e-09
2.0872e-07
-2.36239e-09
2.10146e-07
-1.86883e-09
2.11263e-07
-1.42761e-09
2.12103e-07
-1.03504e-09
2.12697e-07
-6.87467e-10
2.13073e-07
-3.81294e-10
2.13257e-07
-1.11847e-10
2.13273e-07
1.20384e-10
2.13142e-07
3.22327e-10
2.12885e-07
4.95481e-10
2.1252e-07
6.42766e-10
2.12062e-07
7.66778e-10
2.11526e-07
8.69997e-10
2.10926e-07
9.54753e-10
2.10273e-07
1.02321e-09
2.09577e-07
1.0773e-09
2.08847e-07
1.11877e-09
2.08091e-07
1.14917e-09
2.07316e-07
1.16989e-09
2.06529e-07
1.18223e-09
2.05734e-07
1.18735e-09
2.04936e-07
1.18636e-09
2.04138e-07
1.18023e-09
2.03344e-07
1.16989e-09
2.02556e-07
1.15611e-09
2.01776e-07
1.13963e-09
2.01007e-07
1.12105e-09
2.00248e-07
1.10093e-09
1.99502e-07
1.07974e-09
1.98768e-07
1.05786e-09
1.98047e-07
1.03566e-09
1.9734e-07
1.01342e-09
1.96646e-07
9.91368e-10
1.95965e-07
9.69713e-10
1.95298e-07
9.48617e-10
1.94642e-07
9.28209e-10
1.93999e-07
9.086e-10
1.93368e-07
8.89857e-10
1.92748e-07
8.72053e-10
1.92138e-07
8.55224e-10
1.91538e-07
8.39394e-10
1.90948e-07
8.24581e-10
1.90366e-07
8.10783e-10
1.89792e-07
7.97989e-10
1.89225e-07
7.86177e-10
1.88666e-07
7.75314e-10
1.88112e-07
7.65368e-10
1.87564e-07
7.56304e-10
1.87021e-07
7.48084e-10
1.86483e-07
7.40672e-10
1.85949e-07
7.34044e-10
1.85418e-07
7.28171e-10
1.84891e-07
7.23025e-10
1.84366e-07
7.18581e-10
1.83843e-07
7.1481e-10
1.83322e-07
7.11682e-10
1.82802e-07
7.09171e-10
1.82283e-07
7.07246e-10
1.81765e-07
7.05867e-10
1.81247e-07
7.05016e-10
1.80729e-07
7.04653e-10
1.80211e-07
7.04755e-10
1.79692e-07
7.05296e-10
1.79172e-07
7.06255e-10
1.78651e-07
7.07606e-10
1.78129e-07
7.09339e-10
1.77605e-07
7.1143e-10
1.77079e-07
7.13873e-10
1.76551e-07
7.16652e-10
1.76021e-07
7.19761e-10
1.75488e-07
7.23197e-10
1.74952e-07
7.26974e-10
1.74414e-07
7.31106e-10
1.73871e-07
7.35627e-10
1.73326e-07
7.40587e-10
1.72776e-07
7.4604e-10
1.72222e-07
7.5208e-10
1.71663e-07
7.58804e-10
1.71098e-07
7.6635e-10
1.70527e-07
7.74876e-10
1.6995e-07
7.84593e-10
1.69364e-07
7.9576e-10
1.68769e-07
8.08704e-10
1.68164e-07
8.23843e-10
1.67546e-07
8.41694e-10
1.66913e-07
8.6293e-10
1.66262e-07
8.884e-10
1.6559e-07
9.19188e-10
1.64892e-07
9.56696e-10
1.64161e-07
1.00272e-09
1.63391e-07
1.05962e-09
1.62572e-07
1.13045e-09
1.61691e-07
1.21929e-09
1.60732e-07
1.3316e-09
1.59674e-07
1.4749e-09
1.58487e-07
1.65963e-09
1.57132e-07
1.90152e-09
1.55554e-07
2.22278e-09
1.5367e-07
2.66842e-09
1.51348e-07
3.29057e-09
1.48385e-07
4.33793e-09
1.44207e-07
5.98956e-09
9.77108e-09
1.38619e-07
-1.56855e-09
2.03477e-09
-5.72275e-09
6.38561e-09
-1.19529e-08
1.04349e-08
-1.98061e-08
1.38428e-08
-2.89055e-08
1.65511e-08
-3.89613e-08
1.86543e-08
-4.97701e-08
2.03097e-08
-6.12032e-08
2.16821e-08
-7.31896e-08
2.2911e-08
-8.56969e-08
2.4097e-08
-9.87146e-08
2.53009e-08
-1.1224e-07
2.65502e-08
-1.26267e-07
2.78468e-08
-1.40782e-07
2.91752e-08
-1.55756e-07
3.05078e-08
-1.71142e-07
3.18091e-08
-1.86874e-07
3.30381e-08
-2.02865e-07
3.41496e-08
-2.19008e-07
3.50956e-08
-2.35175e-07
3.58263e-08
-2.51219e-07
3.62917e-08
-2.66975e-07
3.64424e-08
-2.82267e-07
3.62318e-08
-2.96904e-07
3.56174e-08
-3.1069e-07
3.45629e-08
-3.23428e-07
3.30396e-08
-3.34921e-07
3.10279e-08
-3.44978e-07
2.85189e-08
-3.53422e-07
2.5515e-08
-3.60088e-07
2.20308e-08
-3.64833e-07
1.80933e-08
-3.67534e-07
1.37417e-08
-3.68095e-07
9.02718e-09
-3.66449e-07
4.01264e-09
-3.62555e-07
-1.23195e-09
-3.56402e-07
-6.63121e-09
-3.48002e-07
-1.21035e-08
-3.37399e-07
-1.75637e-08
-3.24667e-07
-2.29254e-08
-3.09906e-07
-2.81038e-08
-2.93246e-07
-3.3018e-08
-2.74839e-07
-3.7594e-08
-2.54857e-07
-4.17662e-08
-2.3349e-07
-4.54796e-08
-2.10938e-07
-4.86911e-08
-1.87411e-07
-5.13705e-08
-1.63122e-07
-5.35007e-08
-1.38281e-07
-5.50775e-08
-1.13097e-07
-5.61091e-08
-8.77661e-08
-5.66147e-08
-6.24758e-08
-5.66243e-08
-3.73984e-08
-5.61753e-08
-1.26999e-08
-5.53032e-08
1.14655e-08
-5.40461e-08
3.49715e-08
-5.24545e-08
5.7711e-08
-5.05807e-08
7.95904e-08
-4.84737e-08
1.00535e-07
-4.61825e-08
1.20486e-07
-4.37531e-08
1.39401e-07
-4.12281e-08
1.5725e-07
-3.86466e-08
1.74019e-07
-3.60432e-08
1.89701e-07
-3.34486e-08
2.04302e-07
-3.0889e-08
2.17837e-07
-2.83867e-08
2.30327e-07
-2.596e-08
2.41802e-07
-2.36238e-08
2.52295e-07
-2.13896e-08
2.61845e-07
-1.9266e-08
2.70494e-07
-1.72589e-08
2.78287e-07
-1.53719e-08
2.8527e-07
-1.36067e-08
2.91491e-07
-1.19633e-08
2.96998e-07
-1.04403e-08
3.01839e-07
-9.035e-09
3.06061e-07
-7.744e-09
3.09712e-07
-6.56299e-09
3.12837e-07
-5.48717e-09
3.15479e-07
-4.5113e-09
3.17682e-07
-3.62989e-09
3.19484e-07
-2.83727e-09
3.20924e-07
-2.12769e-09
3.22038e-07
-1.49538e-09
3.22861e-07
-9.34627e-10
3.23422e-07
-4.40425e-10
3.23751e-07
-6.69846e-12
3.23875e-07
3.71259e-10
3.23819e-07
6.98416e-10
3.23607e-07
9.79479e-10
3.23258e-07
1.21895e-09
3.22791e-07
1.42106e-09
3.22225e-07
1.5898e-09
3.21573e-07
1.72881e-09
3.20851e-07
1.84148e-09
3.20069e-07
1.93086e-09
3.19239e-07
1.99973e-09
3.18371e-07
2.05069e-09
3.17472e-07
2.08607e-09
3.1655e-07
2.10805e-09
3.15612e-07
2.1186e-09
3.14662e-07
2.1195e-09
3.13706e-07
2.11236e-09
3.12747e-07
2.09862e-09
3.11789e-07
2.07953e-09
3.10833e-07
2.05623e-09
3.09883e-07
2.02968e-09
3.0894e-07
2.00073e-09
3.08006e-07
1.97012e-09
3.07081e-07
1.93846e-09
3.06166e-07
1.90629e-09
3.05262e-07
1.87407e-09
3.04368e-07
1.84217e-09
3.03485e-07
1.81089e-09
3.02614e-07
1.7805e-09
3.01752e-07
1.7512e-09
3.00901e-07
1.72315e-09
3.0006e-07
1.69647e-09
2.99228e-07
1.67127e-09
2.98405e-07
1.6476e-09
2.9759e-07
1.62549e-09
2.96783e-07
1.60496e-09
2.95983e-07
1.58601e-09
2.9519e-07
1.56861e-09
2.94403e-07
1.55273e-09
2.93621e-07
1.53833e-09
2.92843e-07
1.52536e-09
2.9207e-07
1.51378e-09
2.91301e-07
1.50354e-09
2.90534e-07
1.4946e-09
2.89771e-07
1.48693e-09
2.89009e-07
1.48045e-09
2.88248e-07
1.47515e-09
2.87489e-07
1.47096e-09
2.8673e-07
1.46783e-09
2.85972e-07
1.46572e-09
2.85213e-07
1.46458e-09
2.84454e-07
1.46436e-09
2.83694e-07
1.46501e-09
2.82932e-07
1.46648e-09
2.82168e-07
1.46873e-09
2.81403e-07
1.47172e-09
2.80635e-07
1.47544e-09
2.79865e-07
1.47983e-09
2.79091e-07
1.48489e-09
2.78314e-07
1.49059e-09
2.77534e-07
1.49691e-09
2.7675e-07
1.50385e-09
2.75962e-07
1.51143e-09
2.75169e-07
1.51965e-09
2.74372e-07
1.52856e-09
2.73569e-07
1.53821e-09
2.72761e-07
1.54869e-09
2.71947e-07
1.56013e-09
2.71126e-07
1.57267e-09
2.70299e-07
1.58651e-09
2.69463e-07
1.60187e-09
2.68619e-07
1.61908e-09
2.67765e-07
1.63852e-09
2.669e-07
1.66066e-09
2.66023e-07
1.68612e-09
2.65131e-07
1.71567e-09
2.64222e-07
1.75029e-09
2.63294e-07
1.79124e-09
2.62342e-07
1.8401e-09
2.61362e-07
1.89892e-09
2.60349e-07
1.97031e-09
2.59294e-07
2.05766e-09
2.58188e-07
2.16538e-09
2.57019e-07
2.29921e-09
2.55772e-07
2.46681e-09
2.54425e-07
2.6784e-09
2.52952e-07
2.94801e-09
2.51316e-07
3.29513e-09
2.4947e-07
3.74829e-09
2.47343e-07
4.34948e-09
2.44841e-07
5.17012e-09
2.41808e-07
6.32408e-09
2.38084e-07
8.06193e-09
2.33108e-07
1.09654e-08
1.5363e-08
2.27516e-07
-2.18852e-09
4.22329e-09
-7.77228e-09
1.19694e-08
-1.59259e-08
1.85885e-08
-2.59839e-08
2.39008e-08
-3.7436e-08
2.80033e-08
-4.99137e-08
3.11319e-08
-6.31675e-08
3.35635e-08
-7.70402e-08
3.55547e-08
-9.1439e-08
3.73098e-08
-1.06312e-07
3.89696e-08
-1.21626e-07
4.06154e-08
-1.37356e-07
4.22803e-08
-1.53472e-07
4.39622e-08
-1.69931e-07
4.56348e-08
-1.86679e-07
4.72558e-08
-2.03643e-07
4.87728e-08
-2.20732e-07
5.01268e-08
-2.37837e-07
5.12548e-08
-2.54833e-07
5.20919e-08
-2.7158e-07
5.25728e-08
-2.87922e-07
5.26337e-08
-3.03694e-07
5.22146e-08
-3.18723e-07
5.12606e-08
-3.3283e-07
4.97244e-08
-3.45834e-07
4.75679e-08
-3.57559e-07
4.47642e-08
-3.6783e-07
4.12985e-08
-3.76481e-07
3.717e-08
-3.83358e-07
3.23922e-08
-3.88321e-07
2.69937e-08
-3.91246e-07
2.10182e-08
-3.92028e-07
1.45243e-08
-3.90586e-07
7.58453e-09
-3.86859e-07
2.86236e-10
-3.80808e-07
-7.28334e-09
-3.72421e-07
-1.50178e-08
-3.6172e-07
-2.28049e-08
-3.48755e-07
-3.05284e-08
-3.33609e-07
-3.80713e-08
-3.16394e-07
-4.53191e-08
-2.97249e-07
-5.21634e-08
-2.76337e-07
-5.85054e-08
-2.53845e-07
-6.42587e-08
-2.29973e-07
-6.93519e-08
-2.04933e-07
-7.37304e-08
-1.78946e-07
-7.73577e-08
-1.52231e-07
-8.02153e-08
-1.25007e-07
-8.23024e-08
-9.74809e-08
-8.36347e-08
-6.98532e-08
-8.42425e-08
-4.23076e-08
-8.41699e-08
-1.50187e-08
-8.34641e-08
1.18483e-08
-8.21702e-08
3.81561e-08
-8.03539e-08
6.37865e-08
-7.80849e-08
8.86369e-08
-7.5431e-08
1.12623e-07
-7.24599e-08
1.35677e-07
-6.92363e-08
1.57745e-07
-6.58211e-08
1.78787e-07
-6.22702e-08
1.98775e-07
-5.86348e-08
2.17692e-07
-5.49602e-08
2.3553e-07
-5.12868e-08
2.5229e-07
-4.76492e-08
2.67981e-07
-4.40773e-08
2.82617e-07
-4.05958e-08
2.96219e-07
-3.72255e-08
3.08811e-07
-3.39826e-08
3.20425e-07
-3.088e-08
3.31094e-07
-2.79271e-08
3.40852e-07
-2.51305e-08
3.4974e-07
-2.24944e-08
3.57797e-07
-2.00206e-08
3.65066e-07
-1.7709e-08
3.71589e-07
-1.5558e-08
3.7741e-07
-1.35647e-08
3.82572e-07
-1.17249e-08
3.87118e-07
-1.00336e-08
3.91092e-07
-8.48498e-09
3.94535e-07
-7.07279e-09
3.97488e-07
-5.79028e-09
3.9999e-07
-4.63038e-09
4.02081e-07
-3.58588e-09
4.03796e-07
-2.64948e-09
4.05169e-07
-1.81397e-09
4.06235e-07
-1.07205e-09
4.07022e-07
-4.16449e-10
4.07561e-07
1.59687e-10
4.07878e-07
6.62807e-10
4.07997e-07
1.09922e-09
4.07943e-07
1.47518e-09
4.07737e-07
1.79654e-09
4.07397e-07
2.0688e-09
4.06941e-07
2.29709e-09
4.06386e-07
2.48617e-09
4.05745e-07
2.64042e-09
4.05032e-07
2.76392e-09
4.04257e-07
2.86041e-09
4.03432e-07
2.93334e-09
4.02565e-07
2.98586e-09
4.01664e-07
3.02086e-09
4.00735e-07
3.04093e-09
3.99785e-07
3.04843e-09
3.98819e-07
3.04543e-09
3.97842e-07
3.0338e-09
3.96856e-07
3.01518e-09
3.95866e-07
2.99103e-09
3.94873e-07
2.96258e-09
3.93881e-07
2.93095e-09
3.9289e-07
2.89707e-09
3.91902e-07
2.86176e-09
3.90919e-07
2.82571e-09
3.8994e-07
2.78949e-09
3.88967e-07
2.7536e-09
3.88e-07
2.71845e-09
3.87039e-07
2.68436e-09
3.86084e-07
2.6516e-09
3.85134e-07
2.62038e-09
3.84191e-07
2.59088e-09
3.83254e-07
2.56318e-09
3.82321e-07
2.53738e-09
3.81394e-07
2.51353e-09
3.80471e-07
2.49163e-09
3.79552e-07
2.47169e-09
3.78636e-07
2.45368e-09
3.77724e-07
2.43758e-09
3.76814e-07
2.42335e-09
3.75907e-07
2.41093e-09
3.75001e-07
2.40029e-09
3.74097e-07
2.39137e-09
3.73193e-07