/*--------------------------------*- C++ -*----------------------------------*\
  =========                 |
  \\      /  F ield         | OpenFOAM: The Open Source CFD Toolbox
   \\    /   O peration     | Website:  https://openfoam.org
    \\  /    A nd           | Version:  8
     \\/     M anipulation  |
\*---------------------------------------------------------------------------*/
FoamFile
{
    version     2.0;
    format      ascii;
    class       volVectorField;
    location    "0.16";
    object      U;
}
// * * * * * * * * * * * * * * * * * * * * * * * * * * * * * * * * * * * * * //

dimensions      [0 1 -1 0 0 0 0];

internalField   nonuniform List<vector> 
12225
(
(0.454101 0.0536124 0)
(0.269088 0.0152165 0)
(0.16886 0.00117974 0)
(0.129568 0.000279781 0)
(0.117216 0.000374297 0)
(0.108145 0.000325591 0)
(0.101029 0.000221408 0)
(0.0961006 0.000149565 0)
(0.0926924 0.000104932 0)
(0.0903327 6.81237e-05 0)
(0.0888047 3.37876e-05 0)
(0.0879879 1.4739e-07 0)
(0.0878209 -3.59766e-05 0)
(0.0882997 -8.18738e-05 0)
(0.0895589 -0.000163037 0)
(0.0918505 -0.000316923 0)
(0.0976106 -0.00136331 0)
(0.104331 -0.0115334 0)
(0.841987 0.141414 0)
(0.679275 0.0767385 0)
(0.500608 0.0248922 0)
(0.395898 0.0104895 0)
(0.350945 0.00599746 0)
(0.323229 0.00435346 0)
(0.302502 0.00324498 0)
(0.287637 0.00236292 0)
(0.277111 0.00171246 0)
(0.26968 0.00119928 0)
(0.264665 0.000749918 0)
(0.261682 0.000324393 0)
(0.260519 -0.000114318 0)
(0.261111 -0.000628603 0)
(0.263666 -0.00135157 0)
(0.268529 -0.00268117 0)
(0.278223 -0.00607812 0)
(0.288382 -0.0216908 0)
(0.989182 0.164622 0)
(0.945887 0.124226 0)
(0.793606 0.0605391 0)
(0.660918 0.0322996 0)
(0.585803 0.0192436 0)
(0.53927 0.0132048 0)
(0.505728 0.00977898 0)
(0.481265 0.00728517 0)
(0.463551 0.00538351 0)
(0.450789 0.00387111 0)
(0.441892 0.00256923 0)
(0.436211 0.00135806 0)
(0.433368 0.00013658 0)
(0.433187 -0.00123529 0)
(0.435798 -0.00300686 0)
(0.44136 -0.0058103 0)
(0.451353 -0.011229 0)
(0.461038 -0.0268542 0)
(1.02745 0.146885 0)
(1.0779 0.144912 0)
(1.00078 0.092904 0)
(0.888367 0.0601633 0)
(0.804017 0.0394739 0)
(0.745336 0.0273701 0)
(0.702095 0.0202106 0)
(0.669887 0.0152412 0)
(0.645994 0.0114496 0)
(0.628363 0.00840782 0)
(0.61567 0.00580347 0)
(0.607087 0.0034084 0)
(0.602094 0.00103396 0)
(0.600387 -0.00154344 0)
(0.601926 -0.00467363 0)
(0.606568 -0.00908777 0)
(0.614812 -0.0160878 0)
(0.622287 -0.0299648 0)
(1.02581 0.117807 0)
(1.11716 0.144192 0)
(1.11097 0.111438 0)
(1.04635 0.0837194 0)
(0.979184 0.0611779 0)
(0.923321 0.0447263 0)
(0.878206 0.0336834 0)
(0.842748 0.0257961 0)
(0.815443 0.0197106 0)
(0.794662 0.0147715 0)
(0.779188 0.0105328 0)
(0.768204 0.0066571 0)
(0.761149 0.00286613 0)
(0.757633 -0.00113677 0)
(0.757451 -0.00575507 0)
(0.760196 -0.0116805 0)
(0.76576 -0.0198132 0)
(0.770361 -0.0322072 0)
(1.0153 0.0905132 0)
(1.10862 0.13113 0)
(1.14538 0.115126 0)
(1.12811 0.0964592 0)
(1.09247 0.0776298 0)
(1.05408 0.0607396 0)
(1.01777 0.0475882 0)
(0.986215 0.0374192 0)
(0.960277 0.0292242 0)
(0.939592 0.0223824 0)
(0.92355 0.0164257 0)
(0.911631 0.0109622 0)
(0.903411 0.00565555 0)
(0.898524 0.000163431 0)
(0.896679 -0.00591112 0)
(0.897341 -0.0131427 0)
(0.900136 -0.0220604 0)
(0.901952 -0.0335195 0)
(1.00615 0.0681288 0)
(1.08399 0.112881 0)
(1.13649 0.108399 0)
(1.15046 0.0980135 0)
(1.14442 0.0851598 0)
(1.12905 0.0710682 0)
(1.109 0.058338 0)
(1.08815 0.0474786 0)
(1.06901 0.0381171 0)
(1.05256 0.0299138 0)
(1.03907 0.0225477 0)
(1.02852 0.0156837 0)
(1.0208 0.00899839 0)
(1.01573 0.00216045 0)
(1.01303 -0.00517901 0)
(1.01219 -0.0134418 0)
(1.01282 -0.0228705 0)
(1.01251 -0.0337534 0)
(0.999968 0.0507845 0)
(1.05922 0.0940837 0)
(1.11105 0.0966427 0)
(1.13899 0.0918424 0)
(1.15173 0.0842531 0)
(1.15527 0.0740602 0)
(1.15194 0.0634445 0)
(1.14449 0.0534571 0)
(1.13551 0.0441804 0)
(1.12655 0.0355512 0)
(1.11845 0.0274552 0)
(1.11167 0.0196965 0)
(1.10642 0.0120368 0)
(1.10273 0.00421662 0)
(1.10048 -0.00402787 0)
(1.09927 -0.0129626 0)
(1.09882 -0.0226324 0)
(1.09745 -0.033086 0)
(0.996035 0.0377783 0)
(1.03953 0.0769931 0)
(1.08414 0.0836314 0)
(1.1149 0.0820169 0)
(1.13555 0.0778319 0)
(1.14978 0.0709378 0)
(1.15823 0.0627637 0)
(1.16203 0.0543848 0)
(1.16288 0.0460628 0)
(1.16212 0.0378583 0)
(1.16061 0.0297883 0)
(1.15895 0.0217862 0)
(1.15753 0.0137209 0)
(1.15653 0.00543169 0)
(1.15595 -0.00323555 0)
(1.15558 -0.0124126 0)
(1.15527 -0.0220242 0)
(1.15401 -0.0320213 0)
(0.993539 0.0281801 0)
(1.02517 0.0622528 0)
(1.06149 0.0711276 0)
(1.09013 0.0713061 0)
(1.11201 0.0689448 0)
(1.12992 0.0642051 0)
(1.14405 0.0579431 0)
(1.15453 0.0510807 0)
(1.16215 0.0439235 0)
(1.16775 0.036545 0)
(1.1719 0.0289931 0)
(1.17507 0.0212677 0)
(1.17759 0.0133165 0)
(1.17967 0.00506516 0)
(1.18136 -0.00354586 0)
(1.18261 -0.0125482 0)
(1.18333 -0.0218047 0)
(1.18307 -0.0312214 0)
(0.991943 0.0211159 0)
(1.01502 0.0498284 0)
(1.04395 0.059672 0)
(1.0691 0.0609601 0)
(1.08952 0.0595272 0)
(1.1073 0.0560262 0)
(1.12278 0.0510008 0)
(1.13581 0.0452123 0)
(1.14666 0.0389918 0)
(1.15576 0.0324111 0)
(1.16342 0.0255053 0)
(1.16988 0.0182916 0)
(1.17532 0.0107589 0)
(1.17988 0.00288726 0)
(1.18362 -0.00532422 0)
(1.18653 -0.0138456 0)
(1.18856 -0.0225222 0)
(1.18963 -0.0312359 0)
(0.991014 0.0161719 0)
(1.0085 0.0402073 0)
(1.03182 0.0501361 0)
(1.05376 0.0520907 0)
(1.0723 0.051148 0)
(1.08878 0.0483178 0)
(1.10369 0.0440101 0)
(1.11688 0.038861 0)
(1.12845 0.0332272 0)
(1.13864 0.0271996 0)
(1.1476 0.0208064 0)
(1.15545 0.0140687 0)
(1.16227 0.00699468 0)
(1.16811 -0.000409143 0)
(1.17302 -0.00811693 0)
(1.17698 -0.0160703 0)
(1.17998 -0.024125 0)
(1.18209 -0.032155 0)
(0.990413 0.0124163 0)
(1.00383 0.0320583 0)
(1.02254 0.041409 0)
(1.04156 0.0437681 0)
(1.05831 0.0431657 0)
(1.07333 0.0407848 0)
(1.08714 0.0369948 0)
(1.09968 0.0323165 0)
(1.11096 0.0271118 0)
(1.12113 0.0215033 0)
(1.13028 0.0155283 0)
(1.13848 0.00921334 0)
(1.14575 0.00258011 0)
(1.1521 -0.00435 0)
(1.15753 -0.0115395 0)
(1.16205 -0.0189167 0)
(1.16562 -0.0263589 0)
(1.16845 -0.0337488 0)
(0.98997 0.00917889 0)
(1.0001 0.0243307 0)
(1.01463 0.0324484 0)
(1.03071 0.0348922 0)
(1.04561 0.0344869 0)
(1.05914 0.0324235 0)
(1.07168 0.0290688 0)
(1.08325 0.0248168 0)
(1.09381 0.019998 0)
(1.10342 0.0147656 0)
(1.11216 0.00917772 0)
(1.12007 0.00327249 0)
(1.12716 -0.00291537 0)
(1.13344 -0.00935141 0)
(1.13889 -0.0159878 0)
(1.14353 -0.0227533 0)
(1.14732 -0.0295535 0)
(1.1505 -0.0362871 0)
(0.989651 0.00638062 0)
(0.997286 0.0171892 0)
(1.00831 0.0235076 0)
(1.02158 0.0256025 0)
(1.03463 0.0251892 0)
(1.04674 0.0232902 0)
(1.05805 0.0202688 0)
(1.0686 0.0164072 0)
(1.07832 0.0119714 0)
(1.08721 0.00712175 0)
(1.09531 0.00193506 0)
(1.10267 -0.00354 0)
(1.10928 -0.00925932 0)
(1.11517 -0.0151781 0)
(1.12033 -0.0212441 0)
(1.12479 -0.0273946 0)
(1.12852 -0.0335594 0)
(1.13175 -0.0396612 0)
(0.989432 0.00393871 0)
(0.995293 0.0106637 0)
(1.00359 0.0147336 0)
(1.01441 0.0159835 0)
(1.02571 0.0152918 0)
(1.0365 0.0133819 0)
(1.04668 0.0105664 0)
(1.05626 0.00703974 0)
(1.06517 0.00298897 0)
(1.07335 -0.00144827 0)
(1.08081 -0.00619169 0)
(1.08758 -0.0111883 0)
(1.09368 -0.016391 0)
(1.0991 -0.0217522 0)
(1.10388 -0.0272232 0)
(1.10805 -0.0327523 0)
(1.1116 -0.0382887 0)
(1.1147 -0.0437779 0)
(0.98929 0.00174627 0)
(0.993993 0.00461898 0)
(1.00039 0.00611752 0)
(1.0093 0.00604408 0)
(1.01914 0.00475602 0)
(1.02879 0.00263949 0)
(1.03799 -0.00010861 0)
(1.04672 -0.00337458 0)
(1.05489 -0.00705044 0)
(1.06242 -0.0110446 0)
(1.0693 -0.0152935 0)
(1.07554 -0.019751 0)
(1.08114 -0.0243757 0)
(1.08615 -0.0291269 0)
(1.09056 -0.0339641 0)
(1.09443 -0.0388477 0)
(1.09776 -0.0437411 0)
(1.10068 -0.0486069 0)
(0.989214 -0.000362548 0)
(0.993312 -0.00130016 0)
(0.998685 -0.00264206 0)
(1.00649 -0.00444061 0)
(1.01539 -0.00663319 0)
(1.02425 -0.00914916 0)
(1.03274 -0.011955 0)
(1.04081 -0.0150276 0)
(1.04838 -0.018337 0)
(1.05538 -0.0218523 0)
(1.06176 -0.0255466 0)
(1.06754 -0.0293948 0)
(1.07273 -0.0333705 0)
(1.07736 -0.0374456 0)
(1.08145 -0.0415916 0)
(1.08505 -0.04578 0)
(1.08817 -0.0499852 0)
(1.0909 -0.0541806 0)
(0.989215 -0.00272731 0)
(0.993357 -0.00793247 0)
(0.998822 -0.0124961 0)
(1.0067 -0.0162856 0)
(1.01558 -0.0195262 0)
(1.02431 -0.0225011 0)
(1.0326 -0.0253742 0)
(1.04042 -0.0282231 0)
(1.04772 -0.0311035 0)
(1.05442 -0.0340581 0)
(1.0605 -0.0371094 0)
(1.06599 -0.0402612 0)
(1.0709 -0.0435066 0)
(1.07529 -0.0468332 0)
(1.07917 -0.0502253 0)
(1.0826 -0.0536647 0)
(1.08559 -0.0571339 0)
(1.08822 -0.0606128 0)
(0.989352 -0.00534467 0)
(0.994589 -0.0152166 0)
(1.00186 -0.0230381 0)
(1.01152 -0.0285665 0)
(1.02165 -0.0325502 0)
(1.03114 -0.0357301 0)
(1.03993 -0.0384579 0)
(1.04809 -0.0409043 0)
(1.05559 -0.0432198 0)
(1.06238 -0.0455247 0)
(1.06848 -0.0478856 0)
(1.07396 -0.0503297 0)
(1.07886 -0.0528661 0)
(1.08324 -0.0554944 0)
(1.08715 -0.0582068 0)
(1.09061 -0.0609905 0)
(1.09368 -0.0638313 0)
(1.09638 -0.0667091 0)
(0.989591 -0.00836251 0)
(0.996839 -0.0233032 0)
(1.00732 -0.0339446 0)
(1.01992 -0.0403976 0)
(1.03199 -0.0444721 0)
(1.04274 -0.0474286 0)
(1.0525 -0.0497094 0)
(1.06144 -0.05156 0)
(1.06953 -0.0532323 0)
(1.07678 -0.0549037 0)
(1.08327 -0.0566552 0)
(1.08909 -0.0585177 0)
(1.0943 -0.0605033 0)
(1.09896 -0.0626121 0)
(1.1031 -0.0648345 0)
(1.10676 -0.0671549 0)
(1.10999 -0.0695546 0)
(1.11279 -0.0720131 0)
(0.990062 -0.0125211 0)
(1.00102 -0.0337148 0)
(1.01681 -0.0466669 0)
(1.03365 -0.0531168 0)
(1.04831 -0.0567212 0)
(1.06089 -0.0591279 0)
(1.07222 -0.0607195 0)
(1.08245 -0.0618348 0)
(1.09152 -0.0628249 0)
(1.09946 -0.0638744 0)
(1.1064 -0.0650391 0)
(1.11243 -0.0663342 0)
(1.1176 -0.067764 0)
(1.12196 -0.0693217 0)
(1.12556 -0.0709913 0)
(1.12844 -0.0727547 0)
(1.13067 -0.0745881 0)
(1.13228 -0.076487 0)
(0.990985 -0.0186844 0)
(1.00853 -0.0476304 0)
(1.03246 -0.0617512 0)
(1.05488 -0.0671092 0)
(1.07279 -0.0698258 0)
(1.08777 -0.0713999 0)
(1.10086 -0.0720089 0)
(1.11192 -0.0721293 0)
(1.12083 -0.0721667 0)
(1.12777 -0.0722591 0)
(1.13296 -0.072433 0)
(1.13657 -0.0727073 0)
(1.13876 -0.0730958 0)
(1.13967 -0.073599 0)
(1.13946 -0.0742074 0)
(1.13828 -0.0749115 0)
(1.13621 -0.0756903 0)
(1.13344 -0.0765681 0)
(0.992791 -0.0281734 0)
(1.02176 -0.0662235 0)
(1.05753 -0.0796038 0)
(1.08635 -0.0828291 0)
(1.10673 -0.084074 0)
(1.12193 -0.0838967 0)
(1.13291 -0.0824232 0)
(1.13954 -0.0804283 0)
(1.14227 -0.0783854 0)
(1.1419 -0.0764324 0)
(1.1391 -0.074635 0)
(1.13436 -0.0730512 0)
(1.1281 -0.0717091 0)
(1.12066 -0.0706078 0)
(1.1123 -0.0697315 0)
(1.10326 -0.0690613 0)
(1.09366 -0.0685649 0)
(1.08383 -0.0682668 0)
(0.996302 -0.0429164 0)
(1.04435 -0.0901734 0)
(1.09425 -0.0999454 0)
(1.12473 -0.0992864 0)
(1.13872 -0.0967013 0)
(1.14282 -0.0919495 0)
(1.13948 -0.0860022 0)
(1.13023 -0.0801496 0)
(1.11703 -0.0748669 0)
(1.10156 -0.0702294 0)
(1.08485 -0.0662542 0)
(1.06753 -0.062922 0)
(1.05001 -0.0601691 0)
(1.03256 -0.0579141 0)
(1.01533 -0.0560787 0)
(0.998436 -0.0545941 0)
(0.981862 -0.0533947 0)
(0.965933 -0.052465 0)
(1.00364 -0.0662035 0)
(1.07784 -0.118959 0)
(1.13112 -0.118829 0)
(1.14155 -0.109273 0)
(1.12643 -0.0981293 0)
(1.10069 -0.085854 0)
(1.07004 -0.0746392 0)
(1.03759 -0.0655338 0)
(1.00563 -0.0583345 0)
(0.975331 -0.052649 0)
(0.946983 -0.0481831 0)
(0.920548 -0.0446843 0)
(0.895891 -0.0419319 0)
(0.872849 -0.039753 0)
(0.851245 -0.0380189 0)
(0.830931 -0.0366309 0)
(0.811698 -0.0355146 0)
(0.793737 -0.034623 0)
(1.01745 -0.102427 0)
(1.10398 -0.147646 0)
(1.11969 -0.124545 0)
(1.07248 -0.0993077 0)
(1.00822 -0.0782333 0)
(0.948121 -0.0613053 0)
(0.895134 -0.0493335 0)
(0.848964 -0.0412339 0)
(0.80909 -0.0355376 0)
(0.774516 -0.031382 0)
(0.744147 -0.0282982 0)
(0.717118 -0.0259697 0)
(0.692792 -0.0241775 0)
(0.670685 -0.0227778 0)
(0.650414 -0.0216732 0)
(0.631699 -0.0207909 0)
(0.614252 -0.0200836 0)
(0.598161 -0.0195023 0)
(1.02237 -0.143155 0)
(1.05565 -0.156472 0)
(0.977878 -0.100931 0)
(0.859085 -0.0638721 0)
(0.76327 -0.0423195 0)
(0.695502 -0.0300191 0)
(0.644224 -0.0233598 0)
(0.603132 -0.0193544 0)
(0.569437 -0.0165718 0)
(0.541179 -0.0145554 0)
(0.516909 -0.0130793 0)
(0.495663 -0.011972 0)
(0.476786 -0.0111213 0)
(0.459802 -0.0104582 0)
(0.444356 -0.00993619 0)
(0.43019 -0.00951785 0)
(0.417061 -0.00918405 0)
(0.405008 -0.00889713 0)
(0.935791 -0.142923 0)
(0.823658 -0.114262 0)
(0.658349 -0.0489636 0)
(0.523754 -0.0221857 0)
(0.450353 -0.0125829 0)
(0.407247 -0.0089816 0)
(0.374944 -0.00732168 0)
(0.349013 -0.00612816 0)
(0.328042 -0.00521584 0)
(0.310651 -0.00457108 0)
(0.295806 -0.00411022 0)
(0.282865 -0.00376354 0)
(0.271406 -0.00349599 0)
(0.261122 -0.00328748 0)
(0.251787 -0.00312331 0)
(0.243241 -0.00299018 0)
(0.235331 -0.00288555 0)
(0.228083 -0.0027856 0)
(0.55697 -0.057013 0)
(0.343487 -0.0256129 0)
(0.228034 -0.00352312 0)
(0.167415 -0.000538272 0)
(0.145532 -0.000572536 0)
(0.132468 -0.000600684 0)
(0.121503 -0.000525565 0)
(0.112675 -0.000426094 0)
(0.105648 -0.00035813 0)
(0.0998411 -0.00031725 0)
(0.094878 -0.000287731 0)
(0.0905485 -0.000264179 0)
(0.0867138 -0.00024569 0)
(0.0832718 -0.000231206 0)
(0.0801461 -0.000219828 0)
(0.0772843 -0.000209587 0)
(0.0746342 -0.00020442 0)
(0.0722139 -0.000191761 0)
(0.00016347 -0.000428272 -2.83321e-21)
(0.000240658 -0.000530569 3.50846e-21)
(-0.000114725 -0.000351692 0)
(-0.000991992 -0.000132697 0)
(-0.00234729 4.61239e-05 0)
(-0.00408255 0.000173655 -3.50093e-21)
(-0.0061051 0.000261674 0)
(-0.00835124 0.000327622 0)
(-0.0107884 0.000387653 0)
(-0.0134095 0.00045382 0)
(-0.0162251 0.00053373 3.47157e-21)
(-0.0192562 0.000631414 0)
(-0.0225287 0.000748498 0)
(-0.0260687 0.000885223 0)
(-0.0299006 0.00104112 0)
(-0.0340449 0.0012154 3.4207e-21)
(-0.0385177 0.00140702 0)
(-0.0433291 0.00161464 0)
(-0.0484828 0.0018365 0)
(-0.0539746 0.0020702 0)
(-0.059792 0.00231252 0)
(-0.0659121 0.0025593 0)
(-0.0723017 0.00280529 0)
(-0.0789154 0.00304415 3.19606e-21)
(-0.0856959 0.0032685 -3.14694e-21)
(-0.0925731 0.00347008 3.09175e-21)
(-0.0994648 0.00364003 3.03007e-21)
(-0.106278 0.00376925 0)
(-0.112908 0.00384889 0)
(-0.119245 0.00387088 -2.80282e-21)
(-0.125171 0.00382851 -2.71209e-21)
(-0.130569 0.0037169 0)
(-0.13532 0.00353331 0)
(-0.139314 0.00327735 -2.39285e-21)
(-0.142449 0.00295113 0)
(-0.144633 0.00255936 0)
(-0.145791 0.00211196 2.00365e-21)
(-0.145863 0.00162303 0)
(-0.144826 0.00110563 1.70576e-21)
(-0.142669 0.000573149 3.09697e-21)
(-0.13941 3.93909e-05 0)
(-0.135085 -0.000481873 0)
(-0.129754 -0.000977707 0)
(-0.123495 -0.00143661 0)
(-0.116403 -0.00184899 0)
(-0.108586 -0.00220743 1.09347e-21)
(-0.100161 -0.00250687 7.60913e-22)
(-0.0912496 -0.00274461 4.34968e-22)
(-0.0819779 -0.00292018 0)
(-0.072469 -0.00303515 1.88299e-22)
(-0.0628417 -0.00309292 0)
(-0.0532074 -0.00309841 -7.60494e-22)
(-0.0436672 -0.00305759 -1.02345e-21)
(-0.0343116 -0.0029781 0)
(-0.0252154 -0.00286809 0)
(-0.0164443 -0.00273194 0)
(-0.00805469 -0.00257343 -1.89223e-21)
(-9.24408e-05 -0.00239928 0)
(0.00741055 -0.00221658 0)
(0.0144338 -0.00203093 0)
(0.0209637 -0.00184623 0)
(0.0269971 -0.00166586 0)
(0.0325383 -0.00149237 0)
(0.0375976 -0.00132766 0)
(0.0421904 -0.00117304 0)
(0.0463361 -0.00102931 2.55413e-21)
(0.0500567 -0.000896878 0)
(0.0533764 -0.0007758 0)
(0.0563206 -0.000665879 -2.57473e-21)
(0.0589155 -0.000566724 -2.57023e-21)
(0.0611872 -0.000477806 0)
(0.0631615 -0.000398505 2.54909e-21)
(0.0648635 -0.000328145 -2.5338e-21)
(0.0663174 -0.000266031 0)
(0.0675464 -0.000211463 2.49658e-21)
(0.0685722 -0.000163759 0)
(0.0694155 -0.000122267 0)
(0.0700953 -8.63683e-05 -2.4307e-21)
(0.0706295 -5.54862e-05 0)
(0.0710346 -2.90866e-05 2.384e-21)
(0.0713257 -6.68322e-06 0)
(0.0715168 1.21621e-05 -2.33737e-21)
(0.0716205 2.78735e-05 -2.3145e-21)
(0.0716483 4.09132e-05 -2.29203e-21)
(0.0716108 5.13488e-05 -4.5404e-21)
(0.0715177 5.96562e-05 4.49821e-21)
(0.0713774 6.60837e-05 0)
(0.0711976 7.08747e-05 0)
(0.0709851 7.42463e-05 0)
(0.0707461 7.6413e-05 4.34625e-21)
(0.0704859 7.75805e-05 4.31278e-21)
(0.0702092 7.79272e-05 -4.28118e-21)
(0.0699202 7.75898e-05 0)
(0.0696223 7.66688e-05 4.22359e-21)
(0.0693186 7.52419e-05 4.19761e-21)
(0.0690119 7.33797e-05 4.17348e-21)
(0.0687046 7.11534e-05 0)
(0.0683987 6.86347e-05 0)
(0.068096 6.5893e-05 0)
(0.0677978 6.29919e-05 4.09484e-21)
(0.0675055 5.99878e-05 0)
(0.06722 5.69292e-05 0)
(0.0669419 5.38573e-05 -4.05307e-21)
(0.0666718 5.08066e-05 0)
(0.0664101 4.7805e-05 0)
(0.066157 4.48749e-05 -4.02394e-21)
(0.0659126 4.20339e-05 0)
(0.065677 3.92951e-05 0)
(0.06545 3.66681e-05 4.00544e-21)
(0.0652315 3.41593e-05 4.0013e-21)
(0.0650213 3.17724e-05 0)
(0.0648191 2.95093e-05 -3.99567e-21)
(0.0646247 2.73704e-05 0)
(0.0644378 2.53549e-05 3.99315e-21)
(0.064258 2.34611e-05 0)
(0.064085 2.16867e-05 3.99328e-21)
(0.0639184 2.00289e-05 3.99421e-21)
(0.0637579 1.8484e-05 0)
(0.0636032 1.70484e-05 0)
(0.0634538 1.5717e-05 0)
(0.0633094 1.44841e-05 0)
(0.0631697 1.33431e-05 0)
(0.0630344 1.22868e-05 0)
(0.0629031 1.13083e-05 0)
(0.0627756 1.04017e-05 4.01673e-21)
(0.0626516 9.56241e-06 -4.0209e-21)
(0.0625308 8.78667e-06 0)
(0.0624129 8.07192e-06 0)
(0.0622978 7.41581e-06 0)
(0.0621852 6.81601e-06 0)
(0.0620749 6.27012e-06 -8.0884e-21)
(0.0619665 5.7754e-06 0)
(0.06186 5.32904e-06 8.10844e-21)
(0.0617551 4.92796e-06 -8.11861e-21)
(0.0616515 4.56897e-06 0)
(0.0615492 4.24883e-06 0)
(0.0614479 3.96459e-06 0)
(0.0613474 3.71307e-06 8.15963e-21)
(0.0612476 3.49163e-06 8.16988e-21)
(0.0611484 3.29782e-06 0)
(0.0610495 3.12943e-06 8.19028e-21)
(0.0609509 2.98438e-06 8.20043e-21)
(0.0608525 2.86073e-06 -8.21053e-21)
(0.060754 2.75654e-06 0)
(0.0606555 2.67002e-06 0)
(0.0605568 2.59942e-06 -8.24058e-21)
(0.0604577 2.54327e-06 0)
(0.0603583 2.50059e-06 0)
(0.0602583 2.4709e-06 0)
(0.0601577 2.45454e-06 0)
(0.0600564 2.4527e-06 8.28993e-21)
(0.0599543 2.4673e-06 8.29971e-21)
(0.0598512 2.50106e-06 0)
(0.0597469 2.55774e-06 8.3192e-21)
(0.0596413 2.64167e-06 0)
(0.0595341 2.75832e-06 0)
(0.059425 2.91411e-06 8.34834e-21)
(0.0593137 3.11704e-06 0)
(0.0591998 3.37679e-06 8.3678e-21)
(0.0590827 3.70544e-06 0)
(0.0589618 4.11783e-06 0)
(0.0588363 4.63269e-06 8.39744e-21)
(0.0587053 5.27339e-06 0)
(0.0585674 6.06955e-06 8.41787e-21)
(0.0584212 7.05835e-06 0)
(0.0582647 8.28723e-06 0)
(0.0580954 9.81676e-06 0)
(0.0579103 1.17249e-05 -8.46265e-21)
(0.0577053 1.41125e-05 0)
(0.0574754 1.71133e-05 8.48888e-21)
(0.0572138 2.09034e-05 0)
(0.0569118 2.57356e-05 0)
(0.056558 3.19231e-05 0)
(0.0561362 4.01329e-05 0)
(0.0556263 5.06118e-05 0)
(0.0549896 6.74559e-05 0)
(0.0542051 8.33857e-05 0)
(0.0530475 0.000163807 -1.73623e-20)
(0.0520596 0.000112128 0)
(0.0469357 0.00094054 0)
(-5.77104e-05 -0.000132574 8.84642e-21)
(-0.00126781 0.00125698 -1.10461e-20)
(-0.00374844 0.00326117 0)
(-0.00744485 0.00519545 7.2958e-21)
(-0.0121289 0.00679227 0)
(-0.0175892 0.00801984 3.61499e-21)
(-0.0236613 0.00895278 -7.15557e-21)
(-0.0302324 0.00969865 -7.10357e-21)
(-0.0372382 0.0103583 0)
(-0.0446544 0.0110083 -6.99538e-21)
(-0.0524839 0.0116971 -3.48284e-21)
(-0.0607445 0.0124492 0)
(-0.0694591 0.0132712 0)
(-0.0786487 0.0141575 0)
(-0.0883269 0.0150954 0)
(-0.0984971 0.0160672 -3.32259e-21)
(-0.109149 0.0170515 0)
(-0.120258 0.0180245 6.47922e-21)
(-0.131783 0.0189595 0)
(-0.143664 0.0198271 0)
(-0.155823 0.0205958 -6.23268e-21)
(-0.168164 0.0212321 0)
(-0.180572 0.0217018 6.04683e-21)
(-0.192913 0.0219705 -2.96606e-21)
(-0.20504 0.0220052 2.90993e-21)
(-0.21679 0.0217758 -2.85058e-21)
(-0.227992 0.0212568 -2.78775e-21)
(-0.238469 0.0204283 0)
(-0.248041 0.0192781 0)
(-0.256531 0.0178025 2.57503e-21)
(-0.263771 0.0160071 -2.55153e-21)
(-0.269605 0.0139074 0)
(-0.273894 0.0115289 0)
(-0.27652 0.00890654 2.22092e-21)
(-0.277389 0.00608377 0)
(-0.276432 0.00311415 0)
(-0.273624 5.40589e-05 -1.8805e-21)
(-0.268964 -0.00303492 0)
(-0.26247 -0.00609047 1.68312e-21)
(-0.254194 -0.00905416 -2.94752e-21)
(-0.244214 -0.011871 0)
(-0.232633 -0.0144908 0)
(-0.21958 -0.01687 -4.19957e-21)
(-0.205198 -0.0189731 -3.56089e-21)
(-0.189649 -0.020773 -2.91289e-21)
(-0.173107 -0.022252 1.17225e-21)
(-0.155751 -0.0234017 -7.63383e-22)
(-0.137765 -0.0242225 -1.39147e-21)
(-0.119333 -0.0247232 3.03971e-22)
(-0.100633 -0.0249199 -1.94686e-22)
(-0.0818356 -0.0248353 0)
(-0.0631014 -0.0244978 8.0373e-22)
(-0.0445771 -0.0239401 -1.05143e-21)
(-0.0263932 -0.0231936 0)
(-0.00867059 -0.0222839 0)
(0.00847132 -0.0212391 0)
(0.0249566 -0.0200919 1.93764e-21)
(0.0407082 -0.0188716 0)
(0.0556707 -0.0176066 -4.31259e-21)
(0.0698029 -0.0163218 0)
(0.0830778 -0.0150387 -4.62707e-21)
(0.0954814 -0.0137751 0)
(0.107011 -0.012546 4.82373e-21)
(0.117674 -0.0113632 0)
(0.127486 -0.0102357 -4.9313e-21)
(0.136469 -0.00917002 2.47089e-21)
(0.144654 -0.00817055 0)
(0.152072 -0.00723973 4.97497e-21)
(0.158761 -0.00637841 2.49065e-21)
(0.164762 -0.00558615 2.48204e-21)
(0.170113 -0.00486146 0)
(0.174858 -0.00420206 2.4439e-21)
(0.179039 -0.00360504 2.4383e-21)
(0.182698 -0.0030671 0)
(0.185875 -0.00258467 -2.39964e-21)
(0.18861 -0.002154 4.74947e-21)
(0.190942 -0.00177133 0)
(0.192908 -0.0014329 2.33537e-21)
(0.194541 -0.00113506 0)
(0.195875 -0.000874267 -6.8693e-21)
(0.196941 -0.000647173 0)
(0.197767 -0.000450616 6.74207e-21)
(0.19838 -0.000281651 2.22813e-21)
(0.198804 -0.00013747 -2.20456e-21)
(0.199063 -1.49363e-05 -4.37051e-21)
(0.199177 8.78212e-05 4.33342e-21)
(0.199166 0.000172852 0)
(0.199047 0.000242302 0)
(0.198835 0.00029809 0)
(0.198545 0.000341947 -1.26159e-20)
(0.198189 0.000375467 -4.17803e-21)
(0.197779 0.000400092 4.15159e-21)
(0.197325 0.000417079 0)
(0.196835 0.000427508 4.10244e-21)
(0.196319 0.000432309 -4.08354e-21)
(0.195782 0.000432303 -4.06456e-21)
(0.19523 0.000428234 0)
(0.19467 0.000420785 0)
(0.194105 0.00041058 0)
(0.193539 0.000398181 -4.0061e-21)
(0.192976 0.000384087 0)
(0.192418 0.000368732 7.97258e-21)
(0.191867 0.000352493 1.19365e-20)
(0.191325 0.000335693 -7.94514e-21)
(0.190794 0.000318602 0)
(0.190274 0.000301447 -3.96387e-21)
(0.189767 0.000284415 0)
(0.189273 0.000267656 -7.91986e-21)
(0.188791 0.000251292 3.95941e-21)
(0.188323 0.000235417 3.95988e-21)
(0.187869 0.000220103 0)
(0.187427 0.000205404 1.18899e-20)
(0.186999 0.000191359 -7.93239e-21)
(0.186582 0.000177991 -3.96973e-21)
(0.186179 0.000165316 0)
(0.185786 0.000153337 -3.97873e-21)
(0.185405 0.000142053 -1.19524e-20)
(0.185035 0.000131453 0)
(0.184674 0.000121525 -7.99262e-21)
(0.184323 0.000112246 -8.00609e-21)
(0.183981 0.000103594 -8.02033e-21)
(0.183648 9.5538e-05 0)
(0.183322 8.8046e-05 0)
(0.183003 8.1085e-05 0)
(0.182691 7.46229e-05 4.0419e-21)
(0.182386 6.86312e-05 4.05031e-21)
(0.182086 6.30842e-05 0)
(0.181791 5.79598e-05 8.1362e-21)
(0.181501 5.32381e-05 8.15439e-21)
(0.181215 4.88998e-05 0)
(0.180933 4.49262e-05 8.19134e-21)
(0.180654 4.12978e-05 1.64206e-20)
(0.180378 3.79953e-05 -8.22914e-21)
(0.180105 3.49986e-05 -8.24848e-21)
(0.179835 3.22874e-05 0)
(0.179566 2.98418e-05 0)
(0.179299 2.76426e-05 0)
(0.179033 2.56712e-05 -8.32502e-21)
(0.178768 2.39105e-05 8.34449e-21)
(0.178504 2.23452e-05 1.67272e-20)
(0.17824 2.09613e-05 -8.38274e-21)
(0.177977 1.97462e-05 8.40213e-21)
(0.177713 1.86886e-05 8.42114e-21)
(0.177449 1.77782e-05 0)
(0.177185 1.70054e-05 0)
(0.176919 1.63619e-05 -8.47873e-21)
(0.176653 1.58413e-05 0)
(0.176386 1.54398e-05 0)
(0.176117 1.51571e-05 1.7072e-20)
(0.175846 1.49976e-05 0)
(0.175574 1.49705e-05 8.57424e-21)
(0.175299 1.50909e-05 -8.59322e-21)
(0.175022 1.53793e-05 0)
(0.174742 1.58632e-05 8.63155e-21)
(0.174458 1.65768e-05 0)
(0.17417 1.75632e-05 0)
(0.173878 1.88752e-05 -8.6889e-21)
(0.17358 2.0579e-05 1.74164e-20)
(0.173276 2.27567e-05 -8.72744e-21)
(0.172965 2.55111e-05 0)
(0.172644 2.8971e-05 0)
(0.172313 3.32989e-05 8.78619e-21)
(0.171969 3.86994e-05 0)
(0.17161 4.5432e-05 8.82626e-21)
(0.171231 5.38262e-05 0)
(0.170829 6.43024e-05 0)
(0.170399 7.74007e-05 0)
(0.169932 9.38184e-05 8.91114e-21)
(0.169421 0.000114464 0)
(0.168852 0.000140538 -8.9584e-21)
(0.168213 0.000173642 0)
(0.167482 0.000215984 0)
(0.166633 0.000270612 1.80832e-20)
(0.165631 0.000342245 -1.81486e-20)
(0.164429 0.000437251 0)
(0.162943 0.000570693 0)
(0.161126 0.000754726 0)
(0.158536 0.00109614 5.55178e-20)
(0.156186 0.0016078 0)
(0.147505 0.00310674 -3.74283e-20)
(-0.000237997 0.00208304 -1.88961e-23)
(-0.00282309 0.00737054 1.46023e-20)
(-0.00742711 0.0126435 0)
(-0.0137631 0.0171921 -1.43475e-20)
(-0.0213791 0.0208082 0)
(-0.0299548 0.023573 0)
(-0.0392761 0.0256935 1.5298e-23)
(-0.0492023 0.027403 6.86614e-21)
(-0.0596502 0.0289038 6.77204e-21)
(-0.0705785 0.0303429 6.70513e-21)
(-0.0819725 0.03181 0)
(-0.0938298 0.0333463 0)
(-0.10615 0.0349568 -6.4571e-21)
(-0.118925 0.0366222 -1.27573e-20)
(-0.132139 0.0383073 1.26006e-20)
(-0.145759 0.0399667 0)
(-0.159735 0.0415485 1.22877e-20)
(-0.174001 0.0429956 -6.04469e-21)
(-0.188469 0.044248 0)
(-0.203035 0.0452437 1.18193e-20)
(-0.217576 0.04592 5.78794e-21)
(-0.231952 0.046216 -1.15043e-20)
(-0.246009 0.0460738 -5.61182e-21)
(-0.259581 0.0454417 0)
(-0.272495 0.0442757 1.10106e-20)
(-0.284571 0.0425425 1.08344e-20)
(-0.29563 0.0402206 0)
(-0.305496 0.0373028 1.04522e-20)
(-0.314 0.0337971 0)
(-0.320987 0.0297268 1.00131e-20)
(-0.326314 0.0251315 4.76309e-21)
(-0.329859 0.020066 0)
(-0.331519 0.0145997 0)
(-0.331218 0.00881388 0)
(-0.328899 0.00280258 0)
(-0.324549 -0.0033399 0)
(-0.318156 -0.00950982 0)
(-0.309741 -0.0156059 7.08323e-21)
(-0.299355 -0.0215285 -9.72749e-21)
(-0.287075 -0.0271817 0)
(-0.273002 -0.0324768 0)
(-0.257261 -0.0373348 0)
(-0.239996 -0.0416891 -1.6427e-22)
(-0.221369 -0.0454866 3.45921e-21)
(-0.201555 -0.0486892 5.80796e-21)
(-0.180739 -0.0512739 -4.53281e-21)
(-0.15911 -0.0532335 -1.67543e-21)
(-0.136862 -0.0545749 9.3571e-22)
(-0.114182 -0.0553188 7.73618e-23)
(-0.0912556 -0.0554981 -2.63438e-22)
(-0.0682577 -0.0551564 0)
(-0.0453514 -0.0543469 -1.51323e-21)
(-0.0226856 -0.053123 4.30703e-23)
(-0.000408944 -0.0515305 0)
(0.0213508 -0.0496215 0)
(0.0424915 -0.0474571 3.3032e-21)
(0.062914 -0.0450936 0)
(0.0825411 -0.0425838 0)
(0.101311 -0.0399775 -3.98877e-21)
(0.119176 -0.0373196 -8.33253e-21)
(0.136101 -0.0346501 4.31051e-21)
(0.152064 -0.0320034 0)
(0.167055 -0.0294087 -4.48078e-21)
(0.181071 -0.0268901 0)
(0.19412 -0.024467 -4.5338e-21)
(0.206218 -0.0221543 -4.5893e-21)
(0.217386 -0.0199629 9.16058e-21)
(0.227651 -0.0179004 4.56164e-21)
(0.237045 -0.015971 0)
(0.245604 -0.0141765 -9.09626e-21)
(0.253367 -0.0125165 0)
(0.260373 -0.0109888 -1.34977e-20)
(0.266664 -0.00958977 -8.92355e-21)
(0.272285 -0.00831452 -8.85222e-21)
(0.277277 -0.00715748 8.77675e-21)
(0.281685 -0.00611243 -1.30588e-20)
(0.28555 -0.00517276 0)
(0.288914 -0.00433167 0)
(0.291817 -0.00358226 8.45692e-21)
(0.294299 -0.00291769 1.2574e-20)
(0.296396 -0.00233125 0)
(0.298145 -0.00181643 -4.1182e-21)
(0.299579 -0.00136701 0)
(0.300729 -0.000977093 1.21192e-20)
(0.301627 -0.000640558 1.17498e-23)
(0.302297 -0.00035239 -1.08435e-23)
(0.302768 -0.000107842 -7.87205e-21)
(0.303061 9.76484e-05 0)
(0.3032 0.000268445 7.75237e-21)
(0.303204 0.00040859 7.71896e-24)
(0.303092 0.000521787 0)
(0.30288 0.000611407 0)
(0.302583 0.000680475 0)
(0.302215 0.000731697 -7.52443e-21)
(0.301787 0.000767483 0)
(0.301311 0.000789992 0)
(0.300795 0.000801166 0)
(0.300248 0.00080276 0)
(0.299678 0.000796358 0)
(0.29909 0.000783376 -7.3549e-21)
(0.29849 0.000765069 0)
(0.297883 0.000742544 -7.32759e-21)
(0.297273 0.000716764 -7.31651e-21)
(0.296663 0.000688562 7.30799e-21)
(0.296056 0.000658651 0)
(0.295454 0.000627637 7.29806e-21)
(0.294859 0.000596032 0)
(0.294273 0.000564261 7.29668e-21)
(0.293697 0.000532675 -7.29887e-21)
(0.293131 0.000501562 -2.19064e-20)
(0.292577 0.000471152 0)
(0.292034 0.000441628 -2.19449e-20)
(0.291502 0.000413132 -7.32263e-21)
(0.290983 0.000385768 0)
(0.290475 0.000359614 -1.46886e-20)
(0.289978 0.000334718 -1.47131e-20)
(0.289493 0.000311109 2.21097e-20)
(0.289019 0.000288796 0)
(0.288554 0.000267774 7.39923e-21)
(0.2881 0.000248024 7.415e-21)
(0.287655 0.000229515 2.22941e-20)
(0.287218 0.000212207 0)
(0.28679 0.000196052 0)
(0.28637 0.000180998 0)
(0.285957 0.000166991 7.50342e-21)
(0.28555 0.000153979 0)
(0.285149 0.000141912 0)
(0.284754 0.000130742 -7.56246e-21)
(0.284364 0.000120425 -7.58275e-21)
(0.283979 0.000110917 0)
(0.283598 0.000102176 0)
(0.28322 9.41607e-05 -1.52899e-20)
(0.282845 8.68296e-05 0)
(0.282473 8.01408e-05 1.53744e-20)
(0.282104 7.40533e-05 1.5417e-20)
(0.281736 6.85271e-05 0)
(0.28137 6.35236e-05 0)
(0.281005 5.90062e-05 -1.55452e-20)
(0.280641 5.49411e-05 6.21105e-26)
(0.280277 5.12974e-05 5.43755e-26)
(0.279914 4.80472e-05 0)
(0.27955 4.51658e-05 -3.14329e-20)
(0.279186 4.26307e-05 0)
(0.278821 4.04224e-05 0)
(0.278455 3.85235e-05 0)
(0.278088 3.69202e-05 1.58877e-20)
(0.277719 3.56023e-05 0)
(0.277349 3.45657e-05 -3.19468e-20)
(0.276976 3.38128e-05 -1.60162e-20)
(0.276601 3.33554e-05 0)
(0.276223 3.32151e-05 -1.6102e-20)
(0.275841 3.34244e-05 0)
(0.275456 3.40286e-05 0)
(0.275067 3.50867e-05 -4.86923e-20)
(0.274673 3.66739e-05 3.25476e-20)
(0.274274 3.8885e-05 0)
(0.273869 4.18384e-05 3.27202e-20)
(0.273456 4.56828e-05 -1.64035e-20)
(0.273035 5.06044e-05 0)
(0.272604 5.68374e-05 0)
(0.272162 6.46764e-05 0)
(0.271706 7.44937e-05 -4.97361e-20)
(0.271233 8.67594e-05 0)
(0.27074 0.00010207 -1.66686e-20)
(0.270223 0.000121185 0)
(0.269676 0.000145073 0)
(0.269093 0.00017498 0)
(0.268464 0.000212514 0)
(0.267778 0.000259775 0)
(0.26702 0.000319528 0)
(0.266172 0.000395471 -3.40335e-20)
(0.265208 0.000492655 0)
(0.264096 0.000618096 -1.71399e-20)
(0.262791 0.000782171 5.16233e-20)
(0.261236 0.000999909 0)
(0.259327 0.00129898 0)
(0.257017 0.00171831 -3.49233e-20)
(0.253803 0.00237852 -3.51424e-20)
(0.250845 0.00346718 3.53953e-20)
(0.241788 0.0053943 3.55308e-20)
(-0.000361321 0.00575243 -1.75443e-20)
(-0.00390061 0.0168079 -2.17102e-20)
(-0.010007 0.0264592 -1.43003e-20)
(-0.0182127 0.0342422 -7.05482e-21)
(-0.0278819 0.0402069 0)
(-0.0385963 0.0446754 1.37104e-20)
(-0.050092 0.048061 -6.76248e-21)
(-0.0621995 0.0507586 0)
(-0.0748149 0.0530857 -6.56488e-21)
(-0.0878797 0.055262 0)
(-0.101361 0.0574146 1.2797e-20)
(-0.115237 0.0595963 0)