/*--------------------------------*- C++ -*----------------------------------*\
  =========                 |
  \\      /  F ield         | OpenFOAM: The Open Source CFD Toolbox
   \\    /   O peration     | Website:  https://openfoam.org
    \\  /    A nd           | Version:  8
     \\/     M anipulation  |
\*---------------------------------------------------------------------------*/
FoamFile
{
    version     2.0;
    format      ascii;
    class       volScalarField;
    location    "0.84";
    object      p;
}
// * * * * * * * * * * * * * * * * * * * * * * * * * * * * * * * * * * * * * //

dimensions      [0 2 -2 0 0 0 0];

internalField   nonuniform List<scalar> 
12225
(
-0.00229847
-0.00227124
-0.00224447
-0.00222393
-0.0022146
-0.0022187
-0.0022382
-0.00227499
-0.00233124
-0.00240977
-0.00251467
-0.00265229
-0.0028333
-0.00307679
-0.0034182
-0.0039243
-0.00478484
-0.00676524
-0.00229823
-0.00227389
-0.00224987
-0.0022318
-0.0022247
-0.00223088
-0.00225236
-0.00229104
-0.00234912
-0.00242939
-0.00253587
-0.00267471
-0.00285592
-0.00309662
-0.00342622
-0.00389536
-0.00460339
-0.00593434
-0.00229905
-0.00227735
-0.00225637
-0.00224112
-0.0022366
-0.00224516
-0.00226887
-0.00230964
-0.00236961
-0.00245152
-0.00255915
-0.00269818
-0.0028774
-0.00311077
-0.00341951
-0.00383306
-0.00436659
-0.00519944
-0.0023012
-0.00228123
-0.0022628
-0.00225012
-0.00224798
-0.00225871
-0.00228438
-0.00232686
-0.00238822
-0.00247097
-0.00257853
-0.00271575
-0.00288963
-0.00311022
-0.00339004
-0.00374043
-0.00413702
-0.00465969
-0.00230453
-0.00228553
-0.00226915
-0.00225876
-0.00225875
-0.00227141
-0.00229874
-0.00234253
-0.00240468
-0.00248743
-0.00259361
-0.00272698
-0.00289245
-0.0030959
-0.00334215
-0.0036298
-0.00392257
-0.00424797
-0.00230885
-0.00229023
-0.00227547
-0.00226711
-0.00226901
-0.00228336
-0.00231206
-0.00235675
-0.00241911
-0.00250099
-0.00260453
-0.00273223
-0.00288677
-0.00307021
-0.00328138
-0.00351102
-0.00372296
-0.00391916
-0.00231393
-0.00229523
-0.00228167
-0.00227507
-0.00227865
-0.00229443
-0.00232415
-0.0023693
-0.00243126
-0.00251142
-0.00261112
-0.00273156
-0.00287333
-0.00303531
-0.00321221
-0.00339094
-0.00354045
-0.00365371
-0.00231948
-0.00230036
-0.0022876
-0.00228248
-0.00228746
-0.00230438
-0.00233477
-0.00237989
-0.00244082
-0.00251842
-0.00261322
-0.00272517
-0.00285304
-0.00299334
-0.00313846
-0.00327441
-0.00337707
-0.00343894
-0.00232511
-0.00230537
-0.00229309
-0.00228916
-0.00229526
-0.00231299
-0.00234365
-0.00238826
-0.00244755
-0.00252183
-0.00261087
-0.00271349
-0.00282705
-0.00294654
-0.00306343
-0.00316476
-0.00323324
-0.00326416
-0.00233036
-0.00230995
-0.00229791
-0.00229489
-0.00230182
-0.00232003
-0.00235057
-0.0023942
-0.00245128
-0.00252161
-0.00260426
-0.00269715
-0.00279666
-0.00289701
-0.00298976
-0.00306399
-0.00310817
-0.00312081
-0.00233474
-0.00231369
-0.00230176
-0.00229943
-0.00230692
-0.00232527
-0.00235531
-0.00239751
-0.00245188
-0.00251779
-0.00259371
-0.0026769
-0.00276316
-0.00284651
-0.00291926
-0.0029728
-0.00299998
-0.00300205
-0.00233744
-0.00231598
-0.00230411
-0.00230224
-0.00230999
-0.00232818
-0.00235741
-0.00239793
-0.00244948
-0.00251107
-0.00258075
-0.00265544
-0.00273065
-0.00280059
-0.00285848
-0.00289761
-0.00291369
-0.00290984
-0.00233834
-0.00231717
-0.00230537
-0.00230387
-0.00231175
-0.00232958
-0.00235775
-0.00239632
-0.00244478
-0.00250187
-0.00256536
-0.00263195
-0.00269719
-0.00275571
-0.00280173
-0.00283022
-0.00283891
-0.00283098
-0.0023366
-0.00231653
-0.00230501
-0.00230386
-0.00231173
-0.00232888
-0.00235554
-0.00239156
-0.00243623
-0.00248808
-0.00254472
-0.00260279
-0.00265808
-0.00270582
-0.00274133
-0.00276104
-0.00276402
-0.00275299
-0.00233036
-0.0023124
-0.00230178
-0.00230104
-0.00230872
-0.00232479
-0.00234936
-0.00238214
-0.00242228
-0.0024682
-0.00251749
-0.00256694
-0.00261272
-0.00265074
-0.00267731
-0.00268996
-0.00268834
-0.00267456
-0.002317
-0.00230255
-0.0022939
-0.00229383
-0.00230113
-0.00231566
-0.00233745
-0.00236616
-0.00240094
-0.00244022
-0.00248176
-0.0025226
-0.0025594
-0.00258873
-0.00260765
-0.00261434
-0.00260843
-0.00259128
-0.00229338
-0.0022843
-0.00227917
-0.00228024
-0.002287
-0.00229942
-0.00231757
-0.00234119
-0.00236953
-0.00240122
-0.00243427
-0.00246614
-0.00249394
-0.00251481
-0.00252628
-0.00252677
-0.00251559
-0.00249328
-0.00225701
-0.00225533
-0.0022554
-0.0022582
-0.00226414
-0.00227365
-0.00228697
-0.00230403
-0.00232429
-0.00234668
-0.00236956
-0.00239081
-0.00240802
-0.00241873
-0.00242077
-0.00241254
-0.00239299
-0.00236195
-0.00220916
-0.00221623
-0.00222231
-0.00222669
-0.00223087
-0.0022359
-0.00224232
-0.00225029
-0.00225959
-0.00226953
-0.00227891
-0.00228609
-0.00228913
-0.00228594
-0.00227459
-0.00225337
-0.00222077
-0.00217621
-0.00217347
-0.00218745
-0.00219798
-0.00220299
-0.00220476
-0.0022046
-0.00220311
-0.00220056
-0.00219689
-0.00219169
-0.00218416
-0.00217319
-0.00215736
-0.00213518
-0.00210524
-0.00206627
-0.00201685
-0.00195602
-0.00215619
-0.00217364
-0.00218621
-0.00219126
-0.00219133
-0.00218764
-0.00218063
-0.00217053
-0.00215728
-0.0021406
-0.00211993
-0.00209445
-0.00206317
-0.00202501
-0.001979
-0.00192424
-0.00185971
-0.00178467
-0.00215149
-0.00217019
-0.00218345
-0.00218854
-0.00218775
-0.00218189
-0.00217117
-0.00215563
-0.00213513
-0.00210941
-0.00207799
-0.0020403
-0.00199564
-0.00194331
-0.0018827
-0.00181334
-0.00173465
-0.00164617
-0.00215512
-0.00217358
-0.00218687
-0.00219235
-0.00219164
-0.002185
-0.00217234
-0.00215349
-0.00212818
-0.00209606
-0.0020567
-0.00200964
-0.00195439
-0.00189054
-0.00181778
-0.001736
-0.00164508
-0.00154496
-0.00216311
-0.0021806
-0.00219385
-0.00220027
-0.00220052
-0.0021943
-0.00218123
-0.0021609
-0.0021329
-0.00209678
-0.00205209
-0.00199839
-0.00193532
-0.00186264
-0.00178029
-0.0016884
-0.00158726
-0.00147722
-0.00217241
-0.00218884
-0.00220242
-0.0022104
-0.00221234
-0.00220747
-0.00219512
-0.00217473
-0.00214572
-0.00210753
-0.00205963
-0.00200159
-0.00193308
-0.00185396
-0.00176431
-0.00166444
-0.00155494
-0.00143655
-0.00218103
-0.0021968
-0.00221135
-0.00222142
-0.00222559
-0.00222268
-0.00221185
-0.00219237
-0.00216355
-0.00212472
-0.00207525
-0.00201466
-0.0019426
-0.00185897
-0.00176392
-0.00165787
-0.00154158
-0.00141615
-0.00218781
-0.00220367
-0.00221993
-0.00223257
-0.0022393
-0.00223873
-0.0022299
-0.00221198
-0.00218418
-0.00214571
-0.00209585
-0.00203403
-0.00195986
-0.0018732
-0.00177424
-0.00166343
-0.00154163
-0.00141019
-0.00219223
-0.00220921
-0.00222799
-0.00224356
-0.00225309
-0.00225509
-0.00224856
-0.00223263
-0.00220642
-0.00216903
-0.00211964
-0.00205758
-0.00198236
-0.00189379
-0.00179203
-0.00167755
-0.00155122
-0.00141452
-0.00219415
-0.00221347
-0.00223545
-0.0022542
-0.00226665
-0.00227133
-0.00226728
-0.0022536
-0.00222935
-0.00219355
-0.00214526
-0.00208367
-0.0020082
-0.00191858
-0.00181488
-0.00169757
-0.00156748
-0.00142611
-0.0021942
-0.00221629
-0.00224121
-0.00226263
-0.00227747
-0.00228436
-0.00228237
-0.00227062
-0.00224812
-0.00221382
-0.00216668
-0.00210579
-0.00203048
-0.00194038
-0.0018355
-0.00171626
-0.00158348
-0.00143865
0.000535681
0.000546456
0.00054786
0.000532728
0.000500798
0.000453
0.000390343
0.000313954
0.000225046
0.000124946
1.46329e-05
-0.000104928
-0.000232928
-0.000368715
-0.00051175
-0.000661571
-0.000817737
-0.000979782
-0.00114716
-0.00131918
-0.00149497
-0.00167341
-0.00185313
-0.00203241
-0.00220922
-0.00238115
-0.00254545
-0.00269901
-0.00283837
-0.00295978
-0.00305925
-0.00313258
-0.00317548
-0.00318367
-0.00315298
-0.00307947
-0.00295961
-0.00279036
-0.00256939
-0.00229514
-0.001967
-0.00158537
-0.0011518
-0.000668968
-0.000140711
0.000428161
0.00103134
0.00166183
0.00231169
0.00297228
0.00363446
0.00428878
0.00492573
0.00553595
0.00611039
0.00664054
0.00711856
0.0075374
0.00789094
0.00817397
0.0083823
0.00851272
0.00856299
0.00853192
0.0084192
0.0082254
0.00795211
0.0076019
0.00717828
0.00668578
0.00612998
0.00551757
0.00485639
0.00415542
0.00342473
0.0026754
0.00191937
0.00116916
0.000437564
-0.0002629
-0.000919991
-0.00152287
-0.00206205
-0.00252998
-0.00292145
-0.00323383
-0.00346716
-0.00362409
-0.00370965
-0.00373088
-0.00369633
-0.00361549
-0.00349823
-0.00335426
-0.00319269
-0.0030217
-0.00284837
-0.00267859
-0.00251713
-0.00236768
-0.00223298
-0.00211479
-0.00201399
-0.0019306
-0.00186378
-0.00181198
-0.00177311
-0.00174468
-0.0017241
-0.00170882
-0.00169654
-0.00168528
-0.00167347
-0.00165992
-0.00164384
-0.00162477
-0.00160255
-0.00157728
-0.00154924
-0.00151887
-0.00148671
-0.00145331
-0.00141934
-0.0013854
-0.00135205
-0.00131977
-0.001289
-0.00126004
-0.00123314
-0.00120844
-0.00118598
-0.00116576
-0.00114768
-0.00113161
-0.00111738
-0.00110478
-0.0010936
-0.00108363
-0.00107464
-0.00106642
-0.00105878
-0.00105154
-0.00104453
-0.0010376
-0.00103064
-0.00102354
-0.00101619
-0.00100854
-0.00100052
-0.000992072
-0.000983174
-0.000973797
-0.000963933
-0.000953547
-0.000942654
-0.000931258
-0.000919363
-0.000906981
-0.000894122
-0.0008808
-0.00086703
-0.00085282
-0.00083818
-0.00082311
-0.000807606
-0.00079165
-0.000775217
-0.000758266
-0.000740745
-0.00072259
-0.000703729
-0.000684081
-0.000663575
-0.00064217
-0.000619837
-0.000596607
-0.000572581
-0.000548177
-0.000525398
-0.000494226
0.000548228
0.000558384
0.000559309
0.000544798
0.000515497
0.000472654
0.000417202
0.000350029
0.000272059
0.000184064
8.69436e-05
-1.86293e-05
-0.000132095
-0.000252991
-0.000380932
-0.000515588
-0.000656644
-0.000803753
-0.000956495
-0.00111432
-0.00127652
-0.00144217
-0.00161007
-0.00177876
-0.00194645
-0.00211101
-0.00226995
-0.00242043
-0.00255925
-0.00268289
-0.00278754
-0.00286916
-0.00292353
-0.0029464
-0.00293351
-0.00288083
-0.00278459
-0.00264149
-0.00244884
-0.0022047
-0.00190801
-0.00155874
-0.00115796
-0.000707882
-0.000211828
0.000325568
0.000898742
0.00150084
0.00212415
0.00276023
0.00340007
0.00403434
0.00465356
0.00524836
0.00580967
0.0063289
0.00679813
0.00721023
0.00755894
0.00783898
0.00804605
0.00817685
0.00822902
0.00820117
0.00809291
0.00790495
0.00763895
0.00729753
0.00688426
0.00640373
0.00586163
0.00526475
0.00462104
0.00393958
0.00323053
0.00250503
0.00177498
0.00105282
0.000351108
-0.000317792
-0.000941968
-0.00151144
-0.00201739
-0.00245305
-0.00281409
-0.00309879
-0.00330806
-0.00344531
-0.00351618
-0.00352804
-0.00348954
-0.00340998
-0.00329878
-0.00316496
-0.00301679
-0.00286154
-0.00270534
-0.00255319
-0.00240904
-0.00227594
-0.00215607
-0.00205085
-0.00196098
-0.00188644
-0.00182652
-0.0017799
-0.00174479
-0.00171906
-0.00170045
-0.00168674
-0.00167587
-0.00166605
-0.00165583
-0.00164408
-0.00163001
-0.00161313
-0.00159324
-0.00157035
-0.00154468
-0.0015166
-0.00148657
-0.00145518
-0.00142297
-0.00139052
-0.00135838
-0.00132706
-0.00129697
-0.00126846
-0.00124177
-0.00121708
-0.00119446
-0.00117394
-0.00115544
-0.00113887
-0.00112408
-0.00111088
-0.0010991
-0.00108852
-0.00107893
-0.00107014
-0.00106197
-0.00105422
-0.00104676
-0.00103942
-0.00103209
-0.00102465
-0.00101702
-0.00100912
-0.00100088
-0.00099226
-0.000983211
-0.000973706
-0.000963723
-0.000953264
-0.000942312
-0.00093087
-0.000918942
-0.000906536
-0.000893662
-0.000880332
-0.000866557
-0.000852346
-0.000837706
-0.000822637
-0.000807134
-0.000791182
-0.000774756
-0.00075782
-0.000740328
-0.000722221
-0.000703438
-0.000683915
-0.000663598
-0.000642442
-0.000620448
-0.000597677
-0.00057427
-0.000550701
-0.000528916
-0.000499121
0.000633451
0.000636937
0.000631328
0.000612336
0.000580995
0.000538581
0.000485939
0.000423758
0.000352701
0.000273356
0.000186232
9.17185e-05
-9.90101e-06
-0.000118433
-0.000233756
-0.000355793
-0.000484475
-0.000619703
-0.000761308
-0.000909001
-0.00106233
-0.00122064
-0.00138302
-0.00154827
-0.00171487
-0.00188091
-0.00204414
-0.00220186
-0.002351
-0.00248808
-0.00260926
-0.00271038
-0.00278704
-0.00283469
-0.00284875
-0.00282473
-0.00275843
-0.00264604
-0.00248437
-0.00227097
-0.00200432
-0.00168398
-0.00131063
-0.000886149
-0.000413578
0.000102589
0.000656683
0.00124189
0.00185044
0.00247377
0.00310273
0.0037278
0.00433934
0.00492779
0.00548391
0.00599898
0.00646496
0.00687464
0.00722171
0.00750086
0.0077078
0.00783925
0.0078929
0.00786737
0.00776227
0.00757827
0.00731714
0.00698151
0.00657497
0.00610215
0.00556878
0.00498175
0.00434912
0.00368013
0.00298513
0.00227547
0.00156331
0.000861293
0.000182244
-0.000461276
-0.00105804
-0.00159738
-0.00207109
-0.00247307
-0.00279978
-0.00305045
-0.00322712
-0.00333438
-0.003379
-0.00336936
-0.00331485
-0.00322519
-0.00310982
-0.00297745
-0.0028357
-0.0026909
-0.00254814
-0.00241131
-0.00228332
-0.00216629
-0.00206165
-0.0019703
-0.00189262
-0.00182843
-0.00177704
-0.00173731
-0.00170766
-0.00168625
-0.00167111
-0.0016603
-0.00165199
-0.00164459
-0.00163675
-0.00162744
-0.00161587
-0.00160157
-0.00158427
-0.00156395
-0.00154078
-0.00151506
-0.00148723
-0.00145779
-0.00142729
-0.00139629
-0.00136533
-0.00133492
-0.00130548
-0.00127737
-0.00125086
-0.00122616
-0.00120337
-0.00118253
-0.0011636
-0.00114652
-0.00113116
-0.00111737
-0.00110496
-0.00109376
-0.00108356
-0.00107419
-0.00106546
-0.0010572
-0.00104925
-0.00104148
-0.00103376
-0.00102597
-0.00101803
-0.00100986
-0.00100139
-0.000992565
-0.000983347
-0.000973702
-0.000963607
-0.000953052
-0.000942026
-0.000930525
-0.000918554
-0.000906116
-0.00089322
-0.000879875
-0.000866091
-0.000851875
-0.000837233
-0.000822164
-0.000806664
-0.000790718
-0.000774305
-0.000757394
-0.000739942
-0.000721902
-0.00070322
-0.000683846
-0.000663737
-0.000642867
-0.000621256
-0.000598991
-0.000576236
-0.000553472
-0.000532834
-0.00050381
0.000792068
0.000782088
0.000763166
0.000734476
0.000696661
0.000650451
0.000596416
0.000535035
0.000466694
0.000391675
0.000310145
0.000222158
0.000127654
2.64766e-05
-8.16091e-05
-0.000196886
-0.000319649
-0.000450168
-0.000588638
-0.000735134
-0.000889553
-0.00105157
-0.00122057
-0.0013956
-0.00157534
-0.001758
-0.00194135
-0.00212264
-0.0022986
-0.00246547
-0.002619
-0.00275454
-0.0028671
-0.00295146
-0.00300234
-0.00301456
-0.0029832
-0.00290381
-0.00277262
-0.00258669
-0.00234415
-0.00204431
-0.0016877
-0.00127604
-0.00081261
-0.000302222
0.000249101
0.000834176
0.0014448
0.00207195
0.00270601
0.003337
0.00395486
0.00454967
0.00511192
0.00563265
0.00610369
0.00651778
0.00686861
0.00715096
0.00736065
0.00749454
0.00755049
0.00752731
0.00742473
0.00724341
0.00698506
0.00665231
0.00624868
0.00577874
0.00524818
0.00466386
0.00403389
0.00336764
0.0026757
0.00196977
0.00126242
0.00056687
-0.000103502
-0.000735586
-0.0013171
-0.00183716
-0.00228721
-0.00266117
-0.00295575
-0.0031708
-0.00330939
-0.00337747
-0.00338338
-0.00333722
-0.00324998
-0.00313274
-0.00299593
-0.00284871
-0.00269864
-0.00255152
-0.00241153
-0.00228145
-0.00216297
-0.00205707
-0.00196421
-0.00188454
-0.00181788
-0.00176374
-0.00172128
-0.0016893
-0.0016663
-0.00165057
-0.00164029
-0.00163367
-0.00162905
-0.00162497
-0.00162019
-0.00161373
-0.00160487
-0.00159312
-0.00157825
-0.00156021
-0.00153913
-0.00151531
-0.00148917
-0.0014612
-0.00143194
-0.00140196
-0.0013718
-0.00134198
-0.00131293
-0.00128504
-0.0012586
-0.00123383
-0.00121085
-0.00118972
-0.00117044
-0.00115294
-0.00113712
-0.00112284
-0.00110994
-0.00109824
-0.00108756
-0.00107771
-0.00106853
-0.00105985
-0.00105152
-0.00104338
-0.00103533
-0.00102725
-0.00101905
-0.00101065
-0.00100197
-0.000992969
-0.000983598
-0.000973824
-0.000963623
-0.000952978
-0.000941877
-0.000930318
-0.000918299
-0.000905825
-0.000892902
-0.000879538
-0.00086574
-0.000851515
-0.000836867
-0.000821798
-0.000806301
-0.000790365
-0.000773971
-0.00075709
-0.000739689
-0.000721724
-0.000703152
-0.00068393
-0.000664025
-0.000643427
-0.000622166
-0.000600341
-0.000578123
-0.000555962
-0.000535916
-0.000507877
0.00100401
0.000975572
0.000938182
0.000895789
0.000848263
0.000795367
0.00073718
0.000673781
0.000605139
0.000531106
0.00045142
0.000365703
0.000273464
0.00017411
6.69658e-05
-4.86984e-05
-0.000173627
-0.000308537
-0.000454058
-0.000610677
-0.000778668
-0.000958022
-0.00114837
-0.00134892
-0.00155837
-0.00177486
-0.00199591
-0.00221839
-0.00243851
-0.00265186
-0.0028534
-0.00303763
-0.00319864
-0.00333027
-0.00342634
-0.0034808
-0.00348796
-0.00344272
-0.00334081
-0.00317895
-0.00295509
-0.00266847
-0.00231964
-0.00191071
-0.00144552
-0.000929333
-0.000368742
0.000228441
0.000853344
0.00149627
0.00214693
0.00279476
0.00342913
0.00403968
0.0046165
0.00515043
0.00563313
0.00605732
0.00641676
0.00670636
0.00692215
0.00706122
0.00712167
0.00710248
0.00700353
0.00682558
0.00657028
0.00624021
0.0058388
0.00537044
0.00484063
0.00425613
0.00362498
0.00295658
0.00226172
0.00155243
0.000841835
0.000143823
-0.000527362
-0.00115765
-0.00173372
-0.00224359
-0.00267765
-0.00302918
-0.00329456
-0.00347376
-0.00357044
-0.00359176
-0.00354781
-0.00345081
-0.00331409
-0.00315103
-0.00297406
-0.00279377
-0.00261852
-0.00245417
-0.00230434
-0.00217076
-0.00205383
-0.00195315
-0.00186791
-0.00179718
-0.00173997
-0.0016952
-0.00166166
-0.00163791
-0.00162237
-0.0016133
-0.00160892
-0.00160751
-0.00160748
-0.00160746
-0.00160629
-0.00160306
-0.00159709
-0.00158793
-0.00157535
-0.00155933
-0.00154001
-0.00151769
-0.0014928
-0.00146584
-0.00143739
-0.00140801
-0.00137828
-0.00134873
-0.00131982
-0.00129195
-0.00126542
-0.00124048
-0.00121726
-0.00119584
-0.00117623
-0.00115837
-0.00114216
-0.00112749
-0.00111418
-0.00110208
-0.00109101
-0.00108079
-0.00107125
-0.00106223
-0.00105357
-0.00104515
-0.00103682
-0.0010285
-0.00102007
-0.00101147
-0.00100261
-0.000993456
-0.000983948
-0.000974056
-0.000963754
-0.000953022
-0.00094185
-0.00093023
-0.000918163
-0.000905649
-0.000892695
-0.000879307
-0.00086549
-0.000851253
-0.000836598
-0.000821526
-0.000806033
-0.00079011
-0.00077374
-0.000756898
-0.000739555
-0.000721674
-0.000703219
-0.000684154
-0.000664454
-0.000644118
-0.00062318
-0.000601744
-0.000579971
-0.000558263
-0.000538393
-0.000511729
0.00124652
0.00119688
0.00113823
0.00107993
0.00102088
0.000959544
0.000895271
0.000827562
0.000755811
0.000679302
0.000597225
0.000508669
0.000412622
0.000307979
0.000193552
6.81082e-05
-6.95955e-05
-0.00022075
-0.000386428
-0.000567504
-0.000764561
-0.000977801
-0.00120694
-0.00145111
-0.0017088
-0.00197773
-0.00225484
-0.00253626
-0.00281731
-0.00309255
-0.00335588
-0.00360066
-0.00381985
-0.00400625
-0.00415269
-0.00425228
-0.00429864
-0.00428618
-0.00421028
-0.00406751
-0.00385584
-0.00357466
-0.00322491
-0.00280932
-0.00233239
-0.00180001
-0.00121951
-0.000599508
5.02908e-05
0.00071937
0.00139666
0.00207086
0.00273071
0.00336529
0.00396429
0.00451825
0.00501871
0.00545836
0.0058311
0.00613203
0.00635745
0.00650478
0.0065724
0.00655957
0.00646635
0.00629358
0.0060429
0.0057168
0.00531853
0.00485222
0.00432312
0.00373772
0.0031039
0.002431
0.00172992
0.00101299
0.00029384
-0.00041289
-0.00109199
-0.00172823
-0.002307
-0.00281494
-0.0032409
-0.00357672
-0.00381786
-0.00396375
-0.00401807
-0.00398866
-0.00388712
-0.00372785
-0.00352696
-0.00330088
-0.00306497
-0.00283243
-0.00261344
-0.00241483
-0.00224028
-0.0020908
-0.00196556
-0.00186258
-0.00177951
-0.00171398
-0.00166382
-0.00162706
-0.00160184
-0.00158627
-0.00157849
-0.00157661
-0.00157876
-0.0015832
-0.00158836
-0.00159291
-0.00159574
-0.00159597
-0.00159298
-0.00158636
-0.00157591
-0.00156164
-0.00154373
-0.00152251
-0.00149844
-0.00147206
-0.00144399
-0.00141482
-0.00138515
-0.00135555
-0.00132651
-0.00129844
-0.00127167
-0.00124644
-0.00122291
-0.00120117
-0.00118122
-0.00116302
-0.00114648
-0.00113146
-0.00111783
-0.0011054
-0.00109402
-0.00108349
-0.00107366
-0.00106437
-0.00105546
-0.00104679
-0.00103824
-0.00102971
-0.0010211
-0.00101232
-0.00100331
-0.000994015
-0.000984384
-0.000974384
-0.000963986
-0.000953172
-0.000941929
-0.000930249
-0.00091813
-0.000905574
-0.000892585
-0.000879168
-0.00086533
-0.000851076
-0.000836411
-0.000821336
-0.000805849
-0.00078994
-0.000773598
-0.000756801
-0.000739523
-0.000721735
-0.000703405
-0.000684504
-0.000665013
-0.000644934
-0.000624304
-0.00060322
-0.000581834
-0.000560486
-0.000540568
-0.00051555
0.00149384
0.00142205
0.0013413
0.00126653
0.00119537
0.00112476
0.0010531
0.000979134
0.000901526
0.00081885
0.00072963
0.00063233
0.00052534
0.000406981
0.000275514
0.000129177
-3.37635e-05
-0.00021494
-0.000415794
-0.000637472
-0.000880705
-0.00114569
-0.00143195
-0.00173828
-0.00206256
-0.00240177
-0.00275191
-0.00310803
-0.00346425
-0.00381387
-0.00414952
-0.00446331
-0.00474706
-0.00499252
-0.00519165
-0.00533684
-0.0054212
-0.00543878
-0.00538482
-0.00525593
-0.00505019
-0.00476733
-0.00440899
-0.00397859
-0.00348119
-0.00292346
-0.00231361
-0.00166118
-0.000976789
-0.000271903
0.000441511
0.0011513
0.00184546
0.00251243
0.00314143
0.00372263
0.00424742
0.00470847
0.0050998
0.00541676
0.005656
0.00581529
0.00589341
0.00588995
0.00580519
0.00564011
0.00539632
0.0050762
0.00468278
0.00421988
0.00369242
0.00310653
0.00246984
0.00179156
0.00108258
0.000355489
-0.000375618
-0.00109538
-0.0017876
-0.00243582
-0.00302398
-0.0035372
-0.00396255
-0.00429006
-0.00451357
-0.00463133
-0.00464634
-0.0045665
-0.00440428
-0.00417593
-0.00390031
-0.00359722
-0.00328579
-0.00298277
-0.00270135
-0.00245045
-0.00223474
-0.00205513
-0.00190981
-0.0017953
-0.00170743
-0.00164207
-0.00159552
-0.00156454
-0.0015463
-0.00153822
-0.00153794
-0.00154327
-0.00155214
-0.00156269
-0.00157331
-0.00158265
-0.0015896
-0.00159334
-0.00159327
-0.001589
-0.00158041
-0.00156754
-0.00155062
-0.00153004
-0.00150633
-0.00148007
-0.00145192
-0.00142253
-0.00139256
-0.00136258
-0.00133313
-0.00130463
-0.00127744
-0.00125181
-0.00122789
-0.00120578
-0.00118549
-0.00116697
-0.00115012
-0.00113482
-0.00112091
-0.00110823
-0.0010966
-0.00108584
-0.00107579
-0.00106628
-0.00105717
-0.00104831
-0.00103959
-0.00103089
-0.00102212
-0.0010132
-0.00100406
-0.000994641
-0.000984901
-0.000974802
-0.000964315
-0.000953423
-0.00094211
-0.000930369
-0.000918198
-0.000905597
-0.000892569
-0.00087912
-0.000865256
-0.000850983
-0.000836305
-0.000821226
-0.000805743
-0.000789851
-0.000773539
-0.000756792
-0.000739587
-0.000721899
-0.000703702
-0.00068497
-0.00066569
-0.000645864
-0.000625528
-0.000604769
-0.000583723
-0.00056267
-0.00054258
-0.000519347
0.00171777
0.00162477
0.00152285
0.00143232
0.00134937
0.00126926
0.00118927
0.00110723
0.00102092
0.000928099
0.000826532
0.000713984
0.000588201
0.000446898
0.000287782
0.000108593
-9.28343e-05
-0.000318469
-0.000569973
-0.000848567
-0.00115488
-0.00148883
-0.00184943
-0.00223477
-0.00264184
-0.00306652
-0.0035036
-0.0039468
-0.00438889
-0.00482181
-0.00523689
-0.00562504
-0.00597701
-0.00628365
-0.00653617
-0.00672642
-0.00684712
-0.00689212
-0.00685662
-0.00673729
-0.00653249
-0.00624249
-0.00586946
-0.00541739
-0.00489208
-0.00430102
-0.00365337
-0.00295964
-0.00223151
-0.00148148
-0.000722532
3.21997e-05
0.000769828
0.00147805
0.00214546
0.00276182
0.00331828
0.00380744
0.00422344
0.00456193
0.00481989
0.00499554
0.00508808
0.00509753
0.00502445
0.00487
0.00463582
0.0043241
0.00393765
0.00348
0.00295563
0.00237032
0.00173134
0.00104771
0.000330286
-0.000408169
-0.00115313
-0.00188855
-0.00259728
-0.00326163
-0.00386409
-0.00438813
-0.00481901
-0.00514493
-0.0053576
-0.00545358
-0.00543464
-0.00530798
-0.00508626
-0.00478693
-0.00443111
-0.00404194
-0.00364256
-0.00325402
-0.00289354
-0.00257328
-0.00229998
-0.00207536
-0.00189721
-0.00176071
-0.00165989
-0.00158861
-0.00154126
-0.00151297
-0.00149965
-0.00149772
-0.00150409
-0.00151613
-0.00153144
-0.00154796
-0.00156394
-0.00157796
-0.00158892
-0.00159597
-0.00159854
-0.00159631
-0.00158918
-0.00157725
-0.00156085
-0.00154042
-0.00151655
-0.00148991
-0.00146123
-0.00143121
-0.00140054
-0.00136987
-0.00133973
-0.0013106
-0.00128282
-0.00125665
-0.00123227
-0.00120975
-0.0011891
-0.00117027
-0.00115315
-0.0011376
-0.00112348
-0.0011106
-0.00109879
-0.00108786
-0.00107765
-0.00106799
-0.00105873
-0.00104973
-0.00104087
-0.00103204
-0.00102315
-0.00101411
-0.00100486
-0.000995339
-0.000985501
-0.000975312
-0.000964743
-0.000953774
-0.000942393
-0.000930591
-0.000918365
-0.000905715
-0.000892645
-0.00087916
-0.000865267
-0.000850971
-0.000836278
-0.000821192
-0.000805713
-0.000789838
-0.00077356
-0.000756866
-0.000739738
-0.000722156
-0.000704097
-0.00068554
-0.000666471
-0.000646893
-0.000626837
-0.000606376
-0.000585629
-0.000564818
-0.000544484
-0.000523063
0.00189
0.00177811
0.00165739
0.00155279
0.00145901
0.00136953
0.00128041
0.00118844
0.00109045
0.000983305
0.000863953
0.000729428
0.000576812
0.00040323
0.000205876
-1.79365e-05
-0.000270682
-0.000554508
-0.00087109
-0.00122148
-0.00160592
-0.00202375
-0.00247318
-0.00295129
-0.00345389
-0.0039756
-0.0045098
-0.00504882
-0.00558404
-0.00610608
-0.00660506
-0.00707082
-0.00749318
-0.00786222
-0.00816855
-0.00840354
-0.00855963
-0.00863051
-0.0086113
-0.00849876
-0.00829153
-0.00799039
-0.00759789
-0.0071186
-0.00655903
-0.00592759
-0.00523437
-0.00449097
-0.00371019
-0.00290568
-0.00209162
-0.00128223
-0.000491459
0.000267494
0.000982477
0.0016427
0.00223897
0.00276377
0.00321133
0.00357754
0.0038598
0.00405678
0.00416819
0.00419451
0.0041367
0.0039961
0.00377442
0.00347373
0.0030966
0.00264623
0.00212668
0.0015433
0.000903037
0.00021465
-0.000511055
-0.00126117
-0.00202078
-0.00277318
-0.0035003
-0.00418328
-0.00480316
-0.00534179
-0.00578265
-0.00611207
-0.00631971
-0.00640004
-0.00635318
-0.00618515
-0.00590808
-0.00553987
-0.00510323
-0.0046241
-0.0041295
-0.00364505
-0.00319266
-0.00278872
-0.00244313
-0.00215943
-0.00193576
-0.00176651
-0.00164398
-0.00155994
-0.00150664
-0.00147728
-0.00146614
-0.0014684
-0.00148006
-0.00149781
-0.00151883
-0.00154074
-0.00156161
-0.00157991
-0.00159446
-0.0016044
-0.00160917
-0.00160849
-0.0016023
-0.0015908
-0.00157436
-0.00155354
-0.001529
-0.0015015
-0.00147183
-0.00144077
-0.00140907
-0.00137739
-0.00134633
-0.00131636
-0.00128784
-0.00126105
-0.00123613
-0.00121317
-0.00119215
-0.00117302
-0.00115566
-0.00113992
-0.00112563
-0.00111261
-0.00110067
-0.00108964
-0.00107932
-0.00106955
-0.00106019
-0.00105109
-0.00104213
-0.00103321
-0.00102422
-0.00101508
-0.00100573
-0.000996121
-0.000986195
-0.000975922
-0.000965274
-0.000954231
-0.000942781
-0.000930916
-0.000918632
-0.00090593
-0.000892814
-0.000879289
-0.000865361
-0.000851039
-0.000836327
-0.000821232
-0.000805756
-0.000789898
-0.000773654
-0.000757015
-0.000739968
-0.000722495
-0.000704576
-0.000686193
-0.000667333
-0.000647996
-0.000628204
-0.000608014
-0.00058753
-0.000566919
-0.000546307
-0.000526627
0.00198373
0.00185659
0.00172064
0.00160442
0.00150115
0.00140261
0.0013036
0.00119986
0.00108721
0.000961602
0.000819168
0.000656216
0.000469191
0.000254679
9.43797e-06
-0.000269522
-0.000584836
-0.000938635
-0.00133239
-0.00176672
-0.00224126
-0.00275446
-0.00330353
-0.00388434
-0.00449139
-0.0051179
-0.00575587
-0.00639625
-0.00702912
-0.00764391
-0.00822966
-0.00877527
-0.00926974
-0.00970249
-0.0100635
-0.0103439
-0.0105356
-0.0106321
-0.0106284
-0.0105214
-0.0103098
-0.00999478
-0.00957918
-0.00906814
-0.0084689
-0.00779073
-0.00704475
-0.00624368
-0.00540155
-0.0045333
-0.00365441
-0.0027804
-0.00192641
-0.00110673
-0.000334431
0.000378999
0.00102389
0.00159251
0.00207913
0.00247985
0.00279248
0.00301621
0.00315129
0.00319873
0.00315995
0.00303657
0.00283039
0.00254342
0.002178
0.00173699
0.00122406
0.000644134
3.78693e-06
-0.000688452
-0.00142185
-0.00218335
-0.00295765
-0.00372741
-0.00447366
-0.00517641
-0.00581534
-0.00637072
-0.00682432
-0.00716057
-0.00736747
-0.00743718
-0.007368
-0.00716446
-0.00683767
-0.00640531
-0.00589093
-0.00532258
-0.0047306
-0.004145
-0.00359263
-0.0030947
-0.00266521
-0.00231047
-0.00202989
-0.00181765
-0.00166474
-0.00156091
-0.00149613
-0.00146145
-0.00144928
-0.0014533
-0.00146839
-0.00149042
-0.001516
-0.00154236
-0.00156732
-0.00158918
-0.00160665
-0.00161885
-0.0016252
-0.00162545
-0.00161961
-0.00160793
-0.00159089
-0.00156912
-0.00154341
-0.00151458
-0.00148351
-0.00145104
-0.00141799
-0.00138507
-0.00135288
-0.00132192
-0.00129256
-0.00126506
-0.00123956
-0.00121614
-0.00119477
-0.00117536
-0.00115779
-0.0011419
-0.00112749
-0.00111438
-0.00110236
-0.00109126
-0.00108088
-0.00107105
-0.00106163
-0.00105246
-0.00104343
-0.00103442
-0.00102535
-0.00101614
-0.00100671
-0.00099701
-0.000987001
-0.000976647
-0.00096592
-0.000954802
-0.00094328
-0.000931348
-0.000919002
-0.000906243
-0.000893075
-0.000879504
-0.000865538
-0.000851184
-0.000836449
-0.000821342
-0.000805866
-0.000790023
-0.000773813
-0.00075723
-0.000740263
-0.000722898
-0.000705119
-0.000686907
-0.000668249
-0.000649141
-0.000629595
-0.000609651
-0.000589394
-0.000568949
-0.00054805
-0.000529961
0.00197642
0.00183874
0.00169203
0.00156716
0.00145601
0.00134885
0.00123931
0.00112207
0.000992008
0.000844183
0.000673958
0.000476961
0.000249063
-1.36079e-05
-0.000314616
-0.000657123
-0.00104376
-0.00147645
-0.00195625
-0.00248318
-0.00305601
-0.0036722
-0.00432778
-0.00501734
-0.00573406
-0.00646979
-0.00721522
-0.00796004
-0.00869316
-0.00940295
-0.0100775
-0.0107048
-0.0112732
-0.0117714
-0.0121888
-0.0125159
-0.0127444
-0.0128675
-0.0128797
-0.0127779
-0.0125612
-0.0122305
-0.0117891
-0.0112427
-0.0105992
-0.00986869
-0.00906342
-0.00819727
-0.00728556
-0.00634466
-0.00539148
-0.00444299
-0.00351571
-0.00262521
-0.00178565
-0.00100941
-0.00030676
0.000314222
0.000847727
0.00129007
0.00163943
0.00189554
0.00205926
0.00213219
0.00211626
0.00201346
0.00182571
0.00155514
0.00120376
0.00077416
0.000269632
-0.000305303
-0.000944425
-0.00163943
-0.00237963
-0.00315183
-0.00394033
-0.00472714
-0.00549244
-0.00621511
-0.00687354
-0.00744652
-0.0079142
-0.00825918
-0.00846802
-0.00853075
-0.0084438
-0.00821013
-0.00783956
-0.00734909
-0.00676248
-0.0061091
-0.00542193
-0.00473483
-0.00407939
-0.00348185
-0.00296085
-0.00252628
-0.00217967
-0.00191572
-0.00172459
-0.00159428
-0.00151254
-0.00146814
-0.00145144
-0.00145448
-0.0014708
-0.00149532
-0.00152398
-0.00155355
-0.00158152
-0.00160597
-0.0016255
-0.00163915
-0.00164632
-0.00164679
-0.00164062
-0.00162814
-0.00160992
-0.00158669