/*--------------------------------*- C++ -*----------------------------------*\
  =========                 |
  \\      /  F ield         | OpenFOAM: The Open Source CFD Toolbox
   \\    /   O peration     | Website:  https://openfoam.org
    \\  /    A nd           | Version:  8
     \\/     M anipulation  |
\*---------------------------------------------------------------------------*/
FoamFile
{
    version     2.0;
    format      ascii;
    class       surfaceScalarField;
    location    "0.84";
    object      phi;
}
// * * * * * * * * * * * * * * * * * * * * * * * * * * * * * * * * * * * * * //

dimensions      [0 3 -1 0 0 0 0];

internalField   nonuniform List<scalar> 
24170
(
-2.26729e-12
2.26729e-12
4.166e-12
-6.43329e-12
1.83037e-11
-1.41377e-11
3.85242e-11
-2.02205e-11
6.36144e-11
-2.50902e-11
9.28113e-11
-2.9197e-11
1.25608e-10
-3.27965e-11
1.61659e-10
-3.60515e-11
2.00749e-10
-3.90892e-11
2.42801e-10
-4.20527e-11
2.87925e-10
-4.51242e-11
3.36439e-10
-4.85137e-11
3.88793e-10
-5.23542e-11
4.44977e-10
-5.61838e-11
5.01105e-10
-5.6128e-11
5.308e-10
-2.96945e-11
4.42774e-10
8.80258e-11
1.35719e-09
-9.14411e-10
-2.39405e-12
4.66135e-12
1.94627e-11
-2.829e-11
6.47292e-11
-5.94043e-11
1.28625e-10
-8.41158e-11
2.07601e-10
-1.04067e-10
2.99203e-10
-1.20798e-10
4.01693e-10
-1.35287e-10
5.13748e-10
-1.48106e-10
6.34311e-10
-1.59653e-10
7.62538e-10
-1.70279e-10
8.97696e-10
-1.80282e-10
1.03882e-09
-1.89633e-10
1.18349e-09
-1.97033e-10
1.32411e-09
-1.968e-10
1.43537e-09
-1.67389e-10
1.43383e-09
-2.81544e-11
1.01365e-09
5.08208e-10
3.01482e-09
-6.43987e-10
1.58075e-12
3.0806e-12
4.32985e-11
-7.00078e-11
1.24859e-10
-1.40965e-10
2.38593e-10
-1.9785e-10
3.7854e-10
-2.44014e-10
5.40306e-10
-2.82564e-10
7.2059e-10
-3.15571e-10
9.16657e-10
-3.44172e-10
1.12602e-09
-3.69016e-10
1.34618e-09
-3.90441e-10
1.57416e-09
-4.08257e-10
1.80527e-09
-4.20748e-10
2.03003e-09
-4.21794e-10
2.226e-09
-3.92767e-10
2.33666e-09
-2.78054e-10
2.2182e-09
9.03072e-11
1.50245e-09
1.22396e-09
4.73579e-09
-2.18519e-10
9.51597e-12
-6.43537e-12
7.63764e-11
-1.36868e-10
1.99845e-10
-2.64434e-10
3.6976e-10
-3.67764e-10
5.77679e-10
-4.51933e-10
8.17038e-10
-5.21924e-10
1.08259e-09
-5.81121e-10
1.36965e-09
-6.31231e-10
1.67355e-09
-6.72922e-10
1.98905e-09
-7.05942e-10
2.30923e-09
-7.28436e-10
2.62315e-09
-7.34666e-10
2.91052e-09
-7.09163e-10
3.12994e-09
-6.12184e-10
3.19408e-09
-3.42197e-10
2.92551e-09
3.58877e-10
2.01124e-09
2.13822e-09
6.4232e-09
3.23838e-10
2.15398e-11
-2.79752e-11
1.1916e-10
-2.34488e-10
2.90419e-10
-4.35693e-10
5.2279e-10
-6.00135e-10
8.05296e-10
-7.34439e-10
1.12897e-09
-8.45593e-10
1.48617e-09
-9.38325e-10
1.86967e-09
-1.01473e-09
2.27176e-09
-1.07501e-09
2.68321e-09
-1.11739e-09
3.09149e-09
-1.13671e-09
3.47718e-09
-1.12036e-09
3.80703e-09
-1.03901e-09
4.0208e-09
-8.25958e-10
4.0099e-09
-3.31294e-10
3.59616e-09
7.72618e-10
2.56463e-09
3.16975e-09
8.01344e-09
9.7439e-10
3.75059e-11
-6.54811e-11
1.71681e-10
-3.68663e-10
3.96595e-10
-6.60608e-10
6.97305e-10
-9.00844e-10
1.06022e-09
-1.09736e-09
1.47373e-09
-1.2591e-09
1.92736e-09
-1.39196e-09
2.41067e-09
-1.49804e-09
2.912e-09
-1.57634e-09
3.41695e-09
-1.62234e-09
3.90592e-09
-1.62568e-09
4.34971e-09
-1.56415e-09
4.70198e-09
-1.39129e-09
4.88776e-09
-1.01173e-09
4.79089e-09
-2.3443e-10
4.25831e-09
1.3052e-09
3.17772e-09
4.25034e-09
9.46756e-09
1.7236e-09
5.70926e-11
-1.22574e-10
2.33396e-10
-5.44967e-10
5.17416e-10
-9.44628e-10
8.91509e-10
-1.27494e-09
1.33936e-09
-1.54521e-09
1.84648e-09
-1.76621e-09
2.39913e-09
-1.94461e-09
2.983e-09
-2.08191e-09
3.58163e-09
-2.17496e-09
4.17449e-09
-2.21521e-09
4.73406e-09
-2.18524e-09
5.22118e-09
-2.05128e-09
5.57852e-09
-1.74863e-09
5.72313e-09
-1.15634e-09
5.54509e-09
-5.63905e-11
4.9319e-09
1.91839e-09
3.86038e-09
5.32187e-09
1.07616e-08
2.56629e-09
7.97338e-11
-2.02307e-10
3.03036e-10
-7.68268e-10
6.50657e-10
-1.29225e-09
1.10177e-09
-1.72605e-09
1.63718e-09
-2.08062e-09
2.23929e-09
-2.36832e-09
2.89073e-09
-2.59605e-09
3.57277e-09
-2.76395e-09
4.26354e-09
-2.86574e-09
4.93583e-09
-2.88749e-09
5.55408e-09
-2.8035e-09
6.07044e-09
-2.56764e-09
6.42037e-09
-2.09856e-09
6.52083e-09
-1.2568e-09
6.27928e-09
1.8516e-10
5.62958e-09
2.56809e-09
4.61678e-09
6.33467e-09
1.1879e-08
3.49946e-09
1.04582e-10
-3.06889e-10
3.78449e-10
-1.04214e-09
7.92526e-10
-1.70633e-09
1.32215e-09
-2.25567e-09
1.94509e-09
-2.70356e-09
2.64048e-09
-3.06371e-09
3.38706e-09
-3.34263e-09
4.16136e-09
-3.53825e-09
4.93581e-09
-3.64019e-09
5.67654e-09
-3.62823e-09
6.34086e-09
-3.46781e-09
6.87461e-09
-3.10139e-09
7.21096e-09
-2.43491e-09
7.27424e-09
-1.32008e-09
6.99639e-09
4.63012e-10
6.35589e-09
3.20859e-09
5.44441e-09
7.24615e-09
1.28051e-08
4.51826e-09
1.30466e-10
-4.37356e-10
4.5647e-10
-1.36814e-09
9.37367e-10
-2.18722e-09
1.54402e-09
-2.86233e-09
2.25098e-09
-3.41052e-09
3.03407e-09
-3.8468e-09
3.86808e-09
-4.17664e-09
4.72483e-09
-4.395e-09
5.57124e-09
-4.4866e-09
6.36755e-09
-4.42454e-09
7.06567e-09
-4.16593e-09
7.60845e-09
-3.64418e-09
7.93189e-09
-2.75835e-09
7.97357e-09
-1.36176e-09
7.6928e-09
7.43788e-10
7.10614e-09
3.79525e-09
6.33307e-09
8.01922e-09
1.35252e-08
5.61297e-09
1.56014e-10
-5.9337e-10
5.32814e-10
-1.74494e-09
1.07741e-09
-2.73182e-09
1.7556e-09
-3.54052e-09
2.53864e-09
-4.19356e-09
3.39917e-09
-4.70733e-09
4.3083e-09
-5.08577e-09
5.23352e-09
-5.32022e-09
6.13709e-09
-5.39017e-09
6.97478e-09
-5.26224e-09
7.69559e-09
-4.88674e-09
8.24312e-09
-4.19171e-09
8.56071e-09
-3.07593e-09
8.60285e-09
-1.4039e-09
8.35557e-09
9.9107e-10
7.86478e-09
4.28604e-09
7.26301e-09
8.62099e-09
1.40225e-08
6.76576e-09
1.50416e-10
-7.43786e-10
5.0358e-10
-2.0981e-09
1.00689e-09
-3.23513e-09
1.62696e-09
-4.16059e-09
2.33694e-09
-4.90355e-09
3.11161e-09
-5.482e-09
3.92419e-09
-5.89835e-09
4.7446e-09
-6.14063e-09
5.53841e-09
-6.18397e-09
6.26644e-09
-5.99027e-09
6.88559e-09
-5.50588e-09
7.35153e-09
-4.65766e-09
7.62468e-09
-3.34909e-09
7.68068e-09
-1.4599e-09
7.52585e-09
1.14591e-09
7.21462e-09
4.59726e-09
6.86068e-09
8.97493e-09
1.42563e-08
6.62686e-09
1.88925e-10
-9.32711e-10
6.27343e-10
-2.53652e-09
1.24322e-09
-3.851e-09
1.99438e-09
-4.91175e-09
2.84775e-09
-5.75692e-09
3.77253e-09
-6.40678e-09
4.73614e-09
-6.86195e-09
5.70223e-09
-7.10672e-09
6.62991e-09
-7.11165e-09
7.4742e-09
-6.83455e-09
8.18806e-09
-6.21974e-09
8.72696e-09
-5.19656e-09
9.05669e-09
-3.67882e-09
9.16505e-09
-1.56825e-09
9.07625e-09
1.23471e-09
8.86398e-09
4.80953e-09
8.65495e-09
9.18396e-09
1.42997e-08
8.6115e-09
2.28719e-10
-1.16143e-09
7.55003e-10
-3.0628e-09
1.48436e-09
-4.58036e-09
2.36462e-09
-5.79201e-09
3.35643e-09
-6.74873e-09
4.42361e-09
-7.47396e-09
5.52829e-09
-7.96664e-09
6.62885e-09
-8.20728e-09
7.67959e-09
-8.1624e-09
8.63232e-09
-7.78727e-09
9.4399e-09
-7.02732e-09
1.00625e-08
-5.81914e-09
1.04766e-08
-4.09289e-09
1.06863e-08
-1.77805e-09
1.07355e-08
1.18559e-09
1.07141e-08
4.83085e-09
1.07557e-08
9.14241e-09
1.40391e-08
1.10163e-08
2.60805e-10
-1.42224e-09
8.56355e-10
-3.65835e-09
1.67198e-09
-5.39598e-09
2.64622e-09
-6.76625e-09
3.73502e-09
-7.83753e-09
4.89881e-09
-8.63775e-09
6.09702e-09
-9.16485e-09
7.28601e-09
-9.39627e-09
8.41956e-09
-9.29594e-09
9.45146e-09
-8.81918e-09
1.03406e-08
-7.91642e-09
1.10578e-08
-6.53643e-09
1.15956e-08
-4.63061e-09
1.19767e-08
-2.1592e-09
1.22625e-08
8.99794e-10
1.25539e-08
4.5395e-09
1.29829e-08
8.71332e-09
1.33284e-08
1.36936e-08
2.66906e-10
-1.68914e-09
8.71703e-10
-4.26315e-09
1.69146e-09
-6.21575e-09
2.66139e-09
-7.73618e-09
3.7378e-09
-8.91394e-09
4.88305e-09
-9.783e-09
6.05983e-09
-1.03416e-08
7.22938e-09
-1.05658e-08
8.35266e-09
-1.04192e-08
9.39373e-09
-9.86026e-09
1.03253e-08
-8.84798e-09
1.11356e-08
-7.34676e-09
1.18361e-08
-5.3311e-09
1.24677e-08
-2.79076e-09
1.31039e-08
2.63618e-10
1.38479e-08
3.7955e-09
1.48224e-08
7.73885e-09
1.19983e-08
1.61524e-08
2.15698e-10
-1.90484e-09
6.99026e-10
-4.74648e-09
1.34734e-09
-6.86406e-09
2.10821e-09
-8.49705e-09
2.94942e-09
-9.75515e-09
3.84555e-09
-1.06791e-08
4.77314e-09
-1.12692e-08
5.70959e-09
-1.15023e-08
6.63456e-09
-1.13442e-08
7.53335e-09
-1.0759e-08
8.40153e-09
-9.71616e-09
9.25033e-09
-8.19556e-09
1.01114e-08
-6.19218e-09
1.10398e-08
-3.71916e-09
1.21135e-08
-8.1004e-10
1.34286e-08
2.48038e-09
1.509e-08
6.07743e-09
9.89021e-09
1.71981e-08
6.14231e-11
-1.96626e-09
1.9134e-10
-4.8764e-09
3.59219e-10
-7.03194e-09
5.53645e-10
-8.69148e-09
7.72449e-10
-9.97395e-09
1.01801e-09
-1.09247e-08
1.29573e-09
-1.15469e-08
1.61414e-09
-1.18207e-08
1.98603e-09
-1.17161e-08
2.43054e-09
-1.12036e-08
2.97578e-09
-1.02614e-08
3.66122e-09
-8.881e-09
4.53932e-09
-7.07028e-09
5.67535e-09
-4.85519e-09
7.14493e-09
-2.27963e-09
9.02913e-09
5.96182e-10
1.14077e-08
3.69888e-09
6.94661e-09
1.43513e-08
-2.44143e-10
-1.72212e-09
-7.97336e-10
-4.3232e-09
-1.54822e-09
-6.28106e-09
-2.43158e-09
-7.80812e-09
-3.39793e-09
-9.0076e-09
-4.40025e-09
-9.92237e-09
-5.38868e-09
-1.05585e-08
-6.30852e-09
-1.09008e-08
-7.09944e-09
-1.09252e-08
-7.69556e-09
-1.06074e-08
-8.02599e-09
-9.93097e-09
-8.01584e-09
-8.89116e-09
-7.58789e-09
-7.49823e-09
-6.66516e-09
-5.77792e-09
-5.17428e-09
-3.7705e-09
-3.04975e-09
-1.52835e-09
-2.37899e-10
8.87033e-10
3.4091e-09
3.29961e-09
-3.53311e-10
-1.36881e-09
-1.15402e-09
-3.5225e-09
-2.24487e-09
-5.1902e-09
-3.54013e-09
-6.51285e-09
-4.97974e-09
-7.56799e-09
-6.50985e-09
-8.39227e-09
-8.075e-09
-8.99335e-09
-9.61524e-09
-9.3606e-09
-1.10658e-08
-9.4746e-09
-1.23581e-08
-9.31513e-09
-1.34218e-08
-8.86728e-09
-1.41871e-08
-8.12581e-09
-1.45878e-08
-7.0976e-09
-1.45634e-08
-5.80232e-09
-1.40622e-08
-4.27163e-09
-1.30435e-08
-2.54708e-09
-1.14791e-08
-6.77352e-10
1.28478e-09
-9.35481e-09
-3.77022e-10
-9.91787e-10
-1.23732e-09
-2.66219e-09
-2.421e-09
-4.00653e-09
-3.84269e-09
-5.09116e-09
-5.44302e-09
-5.96766e-09
-7.1692e-09
-6.66609e-09
-8.9672e-09
-7.19536e-09
-1.07787e-08
-7.54915e-09
-1.25404e-08
-7.71287e-09
-1.41855e-08
-7.66999e-09
-1.56456e-08
-7.40717e-09
-1.68534e-08
-6.91805e-09
-1.77456e-08
-6.20542e-09
-1.82658e-08
-5.28212e-09
-1.83669e-08
-4.1705e-09
-1.80131e-08
-2.9009e-09
-1.71808e-08
-1.50963e-09
-3.66615e-11
-1.58594e-08
-3.35211e-10
-6.56575e-10
-1.11365e-09
-1.88376e-09
-2.20239e-09
-2.91779e-09
-3.52963e-09
-3.76392e-09
-5.04389e-09
-4.4534e-09
-6.69924e-09
-5.01074e-09
-8.44894e-09
-5.44566e-09
-1.02426e-08
-5.75547e-09
-1.20255e-08
-5.93e-09
-1.37391e-08
-5.95636e-09
-1.53231e-08
-5.8232e-09
-1.67174e-08
-5.5237e-09
-1.78652e-08
-5.05762e-09
-1.87153e-08
-4.4321e-09
-1.92242e-08
-3.66155e-09
-1.93585e-08
-2.7666e-09
-1.90954e-08
-1.77272e-09
-7.08936e-10
-1.84231e-08
-2.63601e-10
-3.92975e-10
-8.95662e-10
-1.2517e-09
-1.80139e-09
-2.01206e-09
-2.92565e-09
-2.63966e-09
-4.22631e-09
-3.15273e-09
-5.66571e-09
-3.57135e-09
-7.2061e-09
-3.90527e-09
-8.80718e-09
-4.15439e-09
-1.04251e-08
-4.31212e-09
-1.20124e-08
-4.36899e-09
-1.35197e-08
-4.31591e-09
-1.48969e-08
-4.14653e-09
-1.60956e-08
-3.85892e-09
-1.70714e-08
-3.4563e-09
-1.77858e-08
-2.94714e-09
-1.82078e-08
-2.34457e-09
-1.83151e-08
-1.66542e-09
-9.29571e-10
-1.80945e-08
-1.86506e-10
-2.06469e-10
-6.59338e-10
-7.78865e-10
-1.36031e-09
-1.31109e-09
-2.24878e-09
-1.75119e-09
-3.29108e-09
-2.11044e-09
-4.45733e-09
-2.40509e-09
-5.71852e-09
-2.64408e-09
-7.04421e-09
-2.8287e-09
-8.40133e-09
-2.955e-09
-9.7539e-09
-3.01643e-09
-1.10636e-08
-3.00619e-09
-1.22911e-08
-2.91904e-09
-1.33975e-08
-2.75251e-09
-1.43463e-08
-2.50751e-09
-1.51049e-08
-2.18855e-09
-1.56461e-08
-1.8034e-09
-1.5949e-08
-1.36249e-09
-8.78559e-10
-1.6e-08
-1.17952e-10
-8.85176e-11
-4.47346e-10
-4.4947e-10
-9.5857e-10
-7.99862e-10
-1.62173e-09
-1.08803e-09
-2.41017e-09
-1.322e-09
-3.3009e-09
-1.51435e-09
-4.27257e-09
-1.67241e-09
-5.30337e-09
-1.79791e-09
-6.36973e-09
-1.88864e-09
-7.44577e-09
-1.94038e-09
-8.5035e-09
-1.94845e-09
-9.51358e-09
-1.90896e-09
-1.04464e-08
-1.81964e-09
-1.12736e-08
-1.68031e-09
-1.19691e-08
-1.49307e-09
-1.25104e-08
-1.26216e-09
-1.28793e-08
-9.9358e-10
-6.94868e-10
-1.3063e-08
-6.43547e-11
-2.41628e-11
-2.78226e-10
-2.35599e-10
-6.30609e-10
-4.47479e-10
-1.09904e-09
-6.196e-10
-1.66283e-09
-7.58208e-10
-2.30496e-09
-8.72223e-10
-3.01046e-09
-9.66918e-10
-3.76455e-09
-1.04381e-09
-4.5514e-09
-1.10179e-09
-5.35343e-09
-1.13835e-09
-6.15131e-09
-1.15058e-09
-6.92437e-09
-1.1359e-09
-7.65138e-09
-1.09263e-09
-8.31145e-09
-1.02024e-09
-8.88497e-09
-9.1955e-10
-9.35451e-09
-7.92623e-10
-9.70548e-09
-6.42611e-10
-4.73508e-10
-9.92684e-09
-2.72151e-11
3.05223e-12
-1.55417e-10
-1.07397e-10
-3.83187e-10
-2.19709e-10
-6.93478e-10
-3.09309e-10
-1.07095e-09
-3.8074e-10
-1.5037e-09
-4.39474e-10
-1.9819e-09
-4.88717e-10
-2.49622e-09
-5.29482e-10
-3.03674e-09
-5.61275e-10
-3.5923e-09
-5.82789e-10
-4.15044e-09
-5.92446e-10
-4.69755e-09
-5.88794e-10
-5.21938e-09
-5.70795e-10
-5.70162e-09
-5.37997e-10
-6.13057e-09
-4.90604e-10
-6.49371e-09
-4.29481e-10
-6.78025e-09
-3.56066e-10
-2.72174e-10
-6.98159e-09
-5.27411e-12
8.32634e-12
-7.42202e-11
-3.84511e-11
-2.08561e-10
-8.53687e-11
-3.9586e-10
-1.2201e-10
-6.25708e-10
-1.50892e-10
-8.90556e-10
-1.74626e-10
-1.18457e-09
-1.94708e-10
-1.50242e-09
-2.11628e-10
-1.83848e-09
-2.25211e-10
-2.18636e-09
-2.34916e-10
-2.53873e-09
-2.40072e-10
-2.88748e-09
-2.4004e-10
-3.22394e-09
-2.34336e-10
-3.53924e-09
-2.22704e-10
-3.82469e-09
-2.0515e-10
-4.07223e-09
-1.81943e-10
-4.27471e-09
-1.53583e-10
-1.20708e-10
-4.42618e-09
4.27398e-12
4.05236e-12
-2.65073e-11
-7.66988e-12
-9.31177e-11
-1.87582e-11
-1.87908e-10
-2.722e-11
-3.05002e-10
-3.37972e-11
-4.40427e-10
-3.9201e-11
-5.91313e-10
-4.38222e-11
-7.55149e-10
-4.77913e-11
-9.29288e-10
-5.10721e-11
-1.11067e-09
-5.35372e-11
-1.29571e-09
-5.50235e-11
-1.48038e-09
-5.53721e-11
-1.66026e-09
-5.44558e-11
-1.83077e-09
-5.21978e-11
-1.98734e-09
-4.85797e-11
-2.12564e-09
-4.36439e-11
-2.24175e-09
-3.74702e-11
-3.01871e-11
-2.33227e-09
4.05236e-12
-3.61752e-12
-2.23757e-11
-4.95957e-11
-8.33929e-11
-1.22594e-10
-1.66416e-10
-2.14207e-10
-2.65279e-10
-3.18817e-10
-3.7384e-10
-4.29212e-10
-4.83668e-10
-5.35866e-10
-5.84446e-10
-6.2809e-10
-6.6556e-10
-6.95747e-10
4.94014e-11
-4.94014e-11
1.69981e-10
-1.2058e-10
3.31107e-10
-1.61125e-10
5.0465e-10
-1.73543e-10
6.68456e-10
-1.63807e-10
8.05797e-10
-1.3734e-10
9.04528e-10
-9.87314e-11
9.56252e-10
-5.1724e-11
9.55133e-10
1.11901e-12
8.98322e-10
5.68107e-11
7.83649e-10
1.14673e-10
6.10197e-10
1.73452e-10
3.77562e-10
2.32635e-10
8.55315e-11
2.92031e-10
-2.66157e-10
3.51688e-10
-6.77966e-10
4.11809e-10
-1.15062e-09
4.72655e-10
-1.68511e-09
5.34491e-10
-2.28264e-09
5.97524e-10
-2.94449e-09
6.6185e-10
-3.67189e-09
7.27406e-10
-4.46584e-09
7.93945e-10
-5.32685e-09
8.61015e-10
-6.2548e-09
9.27948e-10
-7.24866e-09
9.93859e-10
-8.30632e-09
1.05766e-09
-9.42439e-09
1.11808e-09
-1.05981e-08
1.17366e-09
-1.18209e-08
1.22286e-09
-1.30849e-08
1.26399e-09
-1.43802e-08
1.29534e-09
-1.56954e-08
1.3152e-09
-1.70174e-08
1.32191e-09
-1.83313e-08
1.3139e-09
-1.96211e-08
1.2898e-09
-2.08695e-08
1.24846e-09
-2.20585e-08
1.189e-09
-2.31694e-08
1.1109e-09
-2.41834e-08
1.01402e-09
-2.50821e-08
8.98628e-10
-2.58475e-08
7.65445e-10
-2.64631e-08
6.15623e-10
-2.69139e-08
4.50752e-10
-2.71867e-08
2.72833e-10
-2.72712e-08
8.44915e-11
-2.71583e-08
-1.12933e-10
-2.68434e-08
-3.14838e-10
-2.63245e-08
-5.18949e-10
-2.56024e-08
-7.22097e-10
-2.46812e-08
-9.21173e-10
-2.3568e-08
-1.11324e-09
-2.22724e-08
-1.29557e-09
-2.08066e-08
-1.46577e-09
-1.91849e-08
-1.62178e-09
-1.74229e-08
-1.76196e-09
-1.55378e-08
-1.88512e-09
-1.35473e-08
-1.99048e-09
-1.14696e-08
-2.07769e-09
-9.32286e-09
-2.14675e-09
-7.12488e-09
-2.19798e-09
-4.89301e-09
-2.23187e-09
-2.64395e-09
-2.24906e-09
-3.939e-10
-2.25005e-09
1.84173e-09
-2.23563e-09
4.04797e-09
-2.20624e-09
6.20978e-09
-2.16181e-09
8.31222e-09
-2.10243e-09
1.03402e-08
-2.02794e-09
1.2278e-08
-1.93788e-09
1.41096e-08
-1.83159e-09
1.5818e-08
-1.70832e-09
1.73854e-08
-1.5674e-09
1.87937e-08
-1.40834e-09
2.00247e-08
-1.23101e-09
2.10606e-08
-1.03585e-09
2.18845e-08
-8.23942e-10
2.24817e-08
-5.9723e-10
2.28403e-08
-3.58558e-10
2.29522e-08
-1.11889e-10
2.28132e-08
1.38955e-10
2.24264e-08
3.86803e-10
2.17994e-08
6.26983e-10
2.09466e-08
8.52786e-10
1.98888e-08
1.05781e-09
1.86527e-08
1.23611e-09
1.72702e-08
1.38253e-09
1.57771e-08
1.4931e-09
1.42118e-08
1.56535e-09
1.26132e-08
1.59855e-09
1.10194e-08
1.59376e-09
9.4657e-09
1.55375e-09
7.9829e-09
1.4828e-09
6.59661e-09
1.38629e-09
5.3263e-09
1.27031e-09
4.18517e-09
1.14113e-09
3.18032e-09
1.00485e-09
2.31324e-09
8.67081e-10
1.58043e-09
7.32814e-10
9.74081e-10
6.06347e-10
4.82783e-10
4.91298e-10
9.22149e-11
3.90568e-10
-2.14028e-10
3.06243e-10
-4.53421e-10
2.39393e-10
-6.43339e-10
1.89918e-10
-7.99858e-10
1.56518e-10
-9.36718e-10
1.3686e-10
-1.06457e-09
1.27857e-10
-1.19066e-09
1.26084e-10
-1.31887e-09
1.28213e-10
-1.45023e-09
1.31356e-10
-1.58351e-09
1.33285e-10
-1.71601e-09
1.32499e-10
-1.8442e-09
1.28184e-10
-1.9643e-09
1.20104e-10
-2.07276e-09
1.08457e-10
-2.1665e-09
9.37431e-11
-2.24314e-09
7.66412e-11
-2.30106e-09
5.79208e-11
-2.33943e-09
3.83683e-11
-2.35815e-09
1.87183e-11
-2.35801e-09
-1.4375e-13
-2.33991e-09
-1.80923e-11
-2.30576e-09
-3.41514e-11
-2.25756e-09
-4.81991e-11
-2.1976e-09
-5.99608e-11
-2.12829e-09
-6.9314e-11
-2.05204e-09
-7.62478e-11
-1.9712e-09
-8.08446e-11
-1.88793e-09
-8.32644e-11
-1.80421e-09
-8.37248e-11
-1.72173e-09
-8.24823e-11
-1.64191e-09
-7.98148e-11
-1.56591e-09
-7.60049e-11
-1.49458e-09
-7.13275e-11
-1.42854e-09
-6.60393e-11
-1.36817e-09
-6.03715e-11
-1.31364e-09
-5.45253e-11
-1.26497e-09
-4.86701e-11
-1.22203e-09
-4.29434e-11
-1.18458e-09
-3.74522e-11
-1.1523e-09
-3.22758e-11
-1.12483e-09
-2.74688e-11
-1.10177e-09
-2.30651e-11
-1.08269e-09
-1.9081e-11
-1.06717e-09
-1.55188e-11
-1.0548e-09
-1.23701e-11
-1.04518e-09
-9.61867e-12
-1.03794e-09
-7.24235e-12
-1.03272e-09
-5.21539e-12
-1.02921e-09
-3.51021e-12
-1.02711e-09
-2.10055e-12
-1.02615e-09
-9.59028e-13
-1.02614e-09
-1.10791e-14
-1.02682e-09
6.8145e-13
-1.02803e-09
1.20748e-12
-1.02961e-09
1.58642e-12
-1.03145e-09
1.83641e-12
-1.03343e-09
1.98225e-12
-1.03548e-09
2.04783e-12
-1.03754e-09
2.05627e-12
-1.03957e-09
2.02964e-12
-1.04155e-09
1.98838e-12
-1.0435e-09
1.94984e-12
-1.04543e-09
1.92645e-12
-1.04735e-09
1.92273e-12
-1.04929e-09
1.93198e-12
-1.05122e-09
1.93231e-12
-1.0531e-09
1.88247e-12
-1.05482e-09
1.71826e-12
-1.05617e-09
1.34932e-12
-1.05684e-09
6.72153e-13
-1.05636e-09
-4.80946e-13
-1.05406e-09
-2.29465e-12
-1.04913e-09
-4.93698e-12
-1.0404e-09
-8.73272e-12
-1.0263e-09
-1.40969e-11
-1.00441e-09
-2.18931e-11
-9.6975e-10
-3.46549e-11
-9.16295e-10
-5.3455e-11
-1.15622e-10
-8.00673e-10
8.75336e-11
-1.36935e-10
2.72945e-10
-3.05991e-10
4.9698e-10
-3.8516e-10
7.12642e-10
-3.89205e-10
8.81552e-10
-3.32716e-10
9.73179e-10
-2.28967e-10
9.63852e-10
-8.94048e-11
8.35637e-10
7.64914e-11
5.75606e-10
2.6115e-10
1.73725e-10
4.58691e-10
-3.76516e-10
6.64914e-10
-1.07994e-09
8.76881e-10
-1.94005e-09
1.09274e-09
-2.95953e-09
1.3115e-09
-4.14059e-09
1.53275e-09
-5.48525e-09
1.75647e-09
-6.99536e-09
1.98276e-09
-8.67255e-09
2.21168e-09
-1.05181e-08
2.44305e-09
-1.25325e-08
2.67628e-09
-1.47154e-08
2.91029e-09
-1.70648e-08
3.14335e-09
-1.95769e-08
3.37311e-09
-2.22455e-08
3.59655e-09
-2.50616e-08
3.80997e-09
-2.80131e-08
4.00913e-09
-3.10842e-08
4.18925e-09
-3.42558e-08
4.34519e-09
-3.75045e-08
4.47158e-09
-4.08034e-08
4.56294e-09
-4.4122e-08
4.61391e-09
-4.74262e-08
4.61938e-09
-5.0679e-08
4.57471e-09
-5.3841e-08
4.4759e-09
-5.6871e-08
4.3198e-09
-5.97267e-08
4.1042e-09
-6.23658e-08
3.82804e-09
-6.47463e-08
3.49147e-09
-6.68283e-08
3.09593e-09
-6.85738e-08
2.64416e-09
-6.99486e-08
2.14022e-09
-7.09223e-08
1.58936e-09
-7.14695e-08
9.97971e-10
-7.15702e-08
3.73517e-10
-7.12097e-08
-2.75984e-10
-7.03806e-08
-9.42024e-10
-6.90808e-08
-1.61472e-09
-6.73147e-08
-2.28499e-09
-6.50931e-08
-2.94369e-09
-6.24322e-08
-3.58209e-09
-5.93534e-08
-4.19206e-09
-5.58827e-08
-4.76629e-09
-5.205e-08
-5.29848e-09
-4.78883e-08
-5.78345e-09
-4.3433e-08
-6.21721e-09
-3.87211e-08
-6.59703e-09
-3.37903e-08
-6.92135e-09
-2.86782e-08
-7.18973e-09
-2.34223e-08
-7.40266e-09
-1.80589e-08
-7.56143e-09
-1.26229e-08
-7.66778e-09
-7.1483e-09
-7.7237e-09
-1.66726e-09
-7.73109e-09
3.78851e-09
-7.6914e-09
9.18783e-09
-7.60556e-09
1.45e-08
-7.47398e-09
1.96941e-08
-7.29655e-09
2.47383e-08
-7.07218e-09
2.95994e-08
-6.79892e-09
3.42419e-08
-6.47415e-09
3.86285e-08
-6.09487e-09
4.27191e-08
-5.65803e-09
4.64718e-08
-5.16101e-09
4.98428e-08
-4.60206e-09
5.27879e-08
-3.9809e-09
5.52631e-08
-3.29914e-09
5.72267e-08
-2.56082e-09
5.8641e-08
-1.77285e-09
5.94744e-08
-9.45334e-10
5.97026e-08
-8.92607e-11
5.9316e-08
7.73469e-10
5.83137e-08
1.62922e-09
5.67115e-08
2.455e-09
5.45405e-08
3.22884e-09
5.1848e-08
3.92863e-09
4.86969e-08
4.53358e-09
4.51643e-08
5.02567e-09
4.13386e-08
5.39107e-09
3.73158e-08
5.62133e-09
3.31955e-08
5.71414e-09
2.90755e-08
5.6737e-09
2.50479e-08
5.51039e-09
2.11943e-08
5.23989e-09
1.75828e-08
4.88185e-09
1.42656e-08
4.45832e-09
1.12783e-08
3.99208e-09
8.64011e-09
3.50531e-09
6.35436e-09
3.01857e-09
4.41051e-09
2.5502e-09
2.7859e-09
2.11591e-09
1.44805e-09
1.72842e-09
3.57342e-10
1.39695e-09
-5.29955e-10
1.12669e-09
-1.25841e-09
9.18377e-10
-1.86999e-09
7.68095e-10
-2.40136e-09
6.68229e-10
-2.88186e-09
6.08353e-10
-3.3325e-09
5.76725e-10
-3.76605e-09
5.61766e-10
-4.18797e-09
5.53277e-10
-4.5979e-09
5.43212e-10
-4.99139e-09
5.25987e-10
-5.36159e-09
4.98388e-10
-5.70072e-09
4.5924e-10
-6.00122e-09
4.08949e-10
-6.25651e-09
3.49038e-10
-6.4616e-09
2.81732e-10
-6.6133e-09
2.09622e-10
-6.71034e-09
1.35402e-10
-6.75329e-09
6.1676e-11
-6.7443e-09
-9.13791e-12
-6.68725e-09
-7.51464e-11
-6.58685e-09
-1.3455e-10
-6.44885e-09
-1.86199e-10
-6.2795e-09
-2.29306e-10
-6.08532e-09
-2.635e-10
-5.87278e-09
-2.88789e-10
-5.64811e-09
-3.05507e-10
-5.41712e-09
-3.14255e-10
-5.18501e-09
-3.15836e-10
-4.95631e-09
-3.11184e-10
-4.73482e-09
-3.01305e-10
-4.5236e-09
-2.87225e-10
-4.32499e-09
-2.69937e-10
-4.14065e-09
-2.50374e-10
-3.97165e-09
-2.29376e-10
-3.8185e-09
-2.07677e-10
-3.68127e-09
-1.85899e-10
-3.55966e-09
-1.6455e-10
-3.45309e-09
-1.44027e-10
-3.36073e-09
-1.24629e-10
-3.28164e-09
-1.06565e-10
-3.21474e-09
-8.99673e-11
-3.15891e-09
-7.4904e-11
-3.11304e-09
-6.13918e-11
-3.076e-09
-4.94068e-11
-3.04673e-09
-3.88944e-11
-3.02419e-09
-2.97784e-11
-3.00744e-09
-2.19673e-11
-2.99559e-09
-1.53611e-11
-2.98783e-09
-9.85578e-12
-2.98345e-09
-5.343e-12
-2.98175e-09
-1.70553e-12
-2.98221e-09
1.13448e-12
-2.98429e-09
3.28771e-12
-2.98756e-09
4.86075e-12
-2.99167e-09
5.93945e-12
-2.9963e-09
6.61412e-12
-3.00122e-09
6.97266e-12
-3.00627e-09
7.09984e-12
-3.01131e-09
7.07599e-12
-3.0163e-09
6.97434e-12
-3.0212e-09
6.85557e-12
-3.02604e-09
6.76061e-12
-3.03082e-09
6.70037e-12
-3.03553e-09
6.64272e-12
-3.04009e-09
6.4987e-12
-3.04432e-09
6.10775e-12
-3.04783e-09
5.22538e-12
-3.04999e-09
3.51292e-12
-3.04986e-09
5.45671e-13
-3.0461e-09
-4.24105e-12
-3.03692e-09
-1.14786e-11
-3.01991e-09
-2.19476e-11
-2.99197e-09
-3.66668e-11
-2.94899e-09
-5.70843e-11
-2.88505e-09
-8.58321e-11
-2.79129e-09
-1.28411e-10
-2.6516e-09
-1.93141e-10
-3.24209e-10
-2.44302e-09
6.72827e-11
-2.04218e-10
1.87224e-10
-4.25933e-10
2.95896e-10
-4.93832e-10
3.43173e-10
-4.36482e-10
2.88614e-10
-2.78158e-10
9.95518e-11
-3.99047e-11
-2.50181e-10
2.60328e-10
-7.81412e-10
6.07722e-10
-1.51053e-09
9.90273e-10
-2.45046e-09
1.39862e-09
-3.61127e-09
1.82572e-09
-5.00089e-09
2.2665e-09
-6.62561e-09
2.71746e-09
-8.49042e-09
3.17631e-09
-1.05992e-08
3.64156e-09
-1.29549e-08
4.11217e-09
-1.55593e-08
4.58714e-09
-1.84128e-08
5.06522e-09
-2.15143e-08
5.54455e-09
-2.48605e-08
6.02246e-09
-2.84454e-08
6.49521e-09
-3.226e-08
6.95795e-09
-3.62915e-08
7.40458e-09
-4.05228e-08
7.82786e-09
-4.49323e-08
8.21949e-09
-4.94935e-08
8.57025e-09
-5.41745e-08
8.8703e-09
-5.89387e-08
9.10942e-09
-6.37445e-08
9.27735e-09
-6.85457e-08
9.36416e-09
-7.32924e-08
9.36054e-09
-7.79312e-08
9.25824e-09
-8.24069e-08
9.05034e-09
-8.66626e-08
8.7316e-09
-9.06415e-08
8.29869e-09
-9.42877e-08
7.75041e-09
-9.75474e-08
7.08779e-09
-1.0037e-07
6.31424e-09
-1.0271e-07
5.43546e-09
-1.04525e-07
4.45938e-09
-1.05781e-07
3.39604e-09
-1.06449e-07
2.25734e-09
-1.06508e-07
1.05676e-09
-1.05943e-07
-1.90757e-10
-1.0475e-07
-1.46958e-09
-1.02929e-07
-2.76305e-09
-1.00489e-07
-4.05465e-09
-9.74455e-08
-5.32815e-09
-9.38213e-08
-6.56798e-09
-8.96438e-08
-7.75955e-09
-8.49462e-08
-8.88962e-09
-7.9766e-08
-9.94652e-09
-7.41441e-08
-1.09204e-08
-6.81239e-08
-1.18036e-08
-6.17509e-08
-1.25902e-08
-5.50713e-08
-1.32767e-08
-4.81311e-08
-1.38615e-08
-4.09763e-08
-1.43446e-08
-3.3651e-08
-1.47279e-08
-2.61983e-08
-1.50142e-08
-1.8659e-08
-1.52071e-08
-1.10723e-08
-1.53104e-08
-3.47543e-09
-1.53279e-08
4.09545e-09
-1.52623e-08
1.16047e-08
-1.51148e-08
1.90168e-08
-1.4886e-08
2.62957e-08
-1.45754e-08
3.34038e-08
-1.41803e-08
4.03014e-08
-1.36965e-08
4.69454e-08
-1.31182e-08
5.32894e-08
-1.24388e-08
5.92827e-08
-1.16513e-08
6.48708e-08
-1.07491e-08
6.99956e-08
-9.72686e-09
7.4596e-08
-8.5813e-09
7.86092e-08
-7.3124e-09
8.19726e-08
-5.92419e-09
8.46254e-08
-4.42568e-09
8.65116e-08
-2.83147e-09
8.75846e-08
-1.16226e-09
8.78046e-08
5.53475e-10
8.71506e-08
2.28315e-09
8.56181e-08
3.98755e-09
8.32232e-08
5.62373e-09
8.00052e-08
7.14659e-09
7.60277e-08
8.51114e-09
7.1378e-08
9.67535e-09
6.61658e-08
1.06032e-08
6.05195e-08
1.12677e-08
5.45804e-08
1.16532e-08
4.84965e-08
1.17576e-08
4.24148e-08
1.15921e-08
3.64735e-08
1.11812e-08
3.07953e-08
1.056e-08
2.5482e-08
9.77164e-09
2.06105e-08
8.86358e-09
1.62314e-08
7.88439e-09
1.23691e-08
6.88089e-09
9.02328e-09
5.896e-09
6.17198e-09
4.96721e-09
3.77511e-09
4.12529e-09
1.77907e-09
3.39298e-09
1.21889e-10
2.78387e-09
-1.2613e-09
2.30157e-09
-2.43318e-09
1.93997e-09
-3.44933e-09
1.68438e-09
-4.35531e-09
1.51433e-09
-5.18491e-09
1.40633e-09
-5.96009e-09
1.33695e-09
-6.69217e-09
1.28536e-09
-7.38383e-09
1.23487e-09
-8.03156e-09
1.17371e-09
-8.62805e-09
1.09488e-09
-9.16434e-09
9.95526e-10
-9.63146e-09
8.76067e-10
-1.00217e-08
7.39278e-10
-1.03294e-08
5.89439e-10
-1.05514e-08
4.31627e-10
-1.06872e-08
2.71175e-10
-1.07388e-08
1.13249e-10
-1.07104e-08
-3.7448e-11
-1.06087e-08
-1.76923e-10
-1.04413e-08
-3.01932e-10
-1.02173e-08
-4.10139e-10
-9.94657e-09
-5.00079e-10
-9.63895e-09
-5.7112e-10
-9.30435e-09
-6.23389e-10
-8.95219e-09
-6.57666e-10
-8.59119e-09
-6.75261e-10
-8.22915e-09
-6.77877e-10
-7.87285e-09
-6.6748e-10
-7.52798e-09
-6.46174e-10
-7.19912e-09
-6.16091e-10
-6.88975e-09
-5.79301e-10
-6.60239e-09
-5.37739e-10
-6.33861e-09
-4.93154e-10
-6.09921e-09
-4.47076e-10
-5.8843e-09
-4.00804e-10
-5.69345e-09
-3.554e-10
-5.52578e-09
-3.11703e-10
-5.38006e-09
-2.70344e-10
-5.25486e-09
-2.31769e-10
-5.14856e-09
-1.96265e-10
-5.05948e-09
-1.63983e-10
-4.98591e-09
-1.34968e-10
-4.92614e-09
-1.09176e-10
-4.87853e-09
-8.65002e-11
-4.84152e-09
-6.67861e-11
-4.81365e-09
-4.98458e-11
-4.79354e-09
-3.54718e-11
-4.77995e-09
-2.34454e-11
-4.77175e-09
-1.35431e-11
-4.76791e-09
-5.54123e-12
-4.76755e-09
7.69695e-13
-4.76986e-09
5.60691e-12
-4.77418e-09
9.17589e-12
-4.77991e-09
1.16722e-11
-4.78658e-09
1.32863e-11
-4.79381e-09
1.42028e-11
-4.80131e-09
1.45991e-11
-4.80888e-09
1.4642e-11
-4.81639e-09
1.44814e-11
-4.82377e-09
1.42392e-11
-4.831e-09
1.39936e-11
-4.83806e-09
1.37574e-11
-4.84487e-09
1.34519e-11
-4.85125e-09
1.28774e-11
-4.85683e-09
1.16841e-11
-4.86095e-09
9.347e-12
-4.86258e-09
5.14775e-12
-4.8602e-09
-1.83149e-12
-4.85172e-09
-1.27266e-11
-4.83432e-09
-2.88746e-11
-4.80439e-09
-5.18837e-11
-4.7573e-09
-8.3756e-11
-4.68714e-09
-1.27238e-10
-4.5862e-09
-1.86777e-10
-4.44424e-09
-2.70367e-10
-4.24531e-09
-3.92075e-10
-5.78319e-10
-3.9912e-09
1.01154e-11
-2.14333e-10
-2.30305e-11
-3.92787e-10
-1.51587e-10
-3.65276e-10
-4.17292e-10
-1.70777e-10
-8.53907e-10
1.58457e-10
-1.48894e-09
5.95125e-10
-2.345e-09
1.11639e-09
-3.44071e-09
1.70343e-09
-4.79155e-09
2.34111e-09
-6.41045e-09
3.01753e-09
-8.30827e-09
3.72354e-09
-1.0494e-08
4.45227e-09
-1.29752e-08
5.19858e-09
-1.57574e-08
5.95852e-09
-1.88447e-08
6.72888e-09
-2.22392e-08
7.50663e-09
-2.59405e-08
8.28846e-09
-2.99456e-08
9.07032e-09
-3.42481e-08
9.84708e-09
-3.88378e-08
1.06122e-08
-4.37001e-08
1.13575e-08
-4.88152e-08
1.2073e-08
-5.4158e-08
1.27474e-08
-5.96977e-08
1.33675e-08
-6.53974e-08
1.39192e-08
-7.12143e-08
1.43872e-08
-7.71001e-08
1.47561e-08
-8.30012e-08
1.50105e-08
-8.88596e-08
1.51357e-08
-9.46135e-08
1.51181e-08
-1.00199e-07
1.4946e-08
-1.05551e-07
1.46098e-08
-1.10603e-07
1.41025e-08
-1.15291e-07
1.34203e-08
-1.19555e-07
1.25622e-08
-1.23335e-07
1.15308e-08
-1.2658e-07
1.03321e-08
-1.2924e-07
8.97503e-09
-1.31277e-07
7.47197e-09
-1.32655e-07
5.83795e-09
-1.3335e-07
4.09058e-09
-1.33342e-07
2.24956e-09
-1.32622e-07
3.36408e-10
-1.31187e-07
-1.62605e-09
-1.29042e-07
-3.61436e-09
-1.262e-07
-5.60486e-09
-1.2268e-07
-7.5743e-09
-1.18508e-07
-9.50019e-09
-1.13715e-07
-1.13613e-08
-1.08337e-07
-1.3138e-08
-1.02413e-07
-1.48127e-08
-9.59895e-08
-1.63704e-08
-8.91113e-08
-1.77987e-08
-8.1827e-08
-1.90879e-08
-7.41858e-08
-2.02314e-08
-6.62369e-08
-2.12256e-08
-5.80288e-08
-2.20696e-08
-4.96085e-08
-2.27649e-08
-4.10213e-08
-2.33151e-08
-3.231e-08
-2.37255e-08
-2.35149e-08
-2.40021e-08
-1.46741e-08
-2.41512e-08
-5.82343e-09
-2.41786e-08
3.00319e-09
-2.40889e-08
1.17727e-08
-2.38844e-08
2.0452e-08
-2.35653e-08
2.90068e-08
-2.31302e-08
3.74012e-08
-2.25747e-08
4.55963e-08
-2.18916e-08
5.35494e-08
-2.10713e-08
6.12132e-08
-2.01026e-08
6.85351e-08
-1.89732e-08
7.54569e-08
-1.76709e-08
8.19148e-08
-1.61848e-08
8.78403e-08
-1.45068e-08
9.31604e-08
-1.26325e-08
9.77994e-08
-1.05632e-08
1.01681e-07
-8.30706e-09
1.0473e-07
-5.88021e-09
1.06875e-07
-3.30803e-09
1.08055e-07
-6.25872e-10
1.08217e-07
2.12048e-09
1.07329e-07
4.87564e-09
1.05377e-07
7.57553e-09
1.02374e-07
1.01499e-08
9.83602e-08
1.25251e-08
9.34074e-08
1.46281e-08
8.76192e-08
1.63914e-08
8.11289e-08
1.7758e-08
7.40955e-08
1.86866e-08
6.6697e-08
1.91561e-08
5.91213e-08
1.91679e-08
5.15557e-08
1.87468e-08
4.41767e-08
1.7939e-08
3.71399e-08
1.68084e-08
3.05725e-08
1.54309e-08
2.45683e-08
1.38886e-08
1.91852e-08
1.2264e-08
1.44462e-08
1.0635e-08
1.0342e-08
9.07142e-09
6.8358e-09
7.63145e-09
3.86957e-09
6.35921e-09
1.37103e-09
5.28242e-09