/*--------------------------------*- C++ -*----------------------------------*\
  =========                 |
  \\      /  F ield         | OpenFOAM: The Open Source CFD Toolbox
   \\    /   O peration     | Website:  https://openfoam.org
    \\  /    A nd           | Version:  8
     \\/     M anipulation  |
\*---------------------------------------------------------------------------*/
FoamFile
{
    version     2.0;
    format      ascii;
    class       volVectorField;
    location    "0.84";
    object      U;
}
// * * * * * * * * * * * * * * * * * * * * * * * * * * * * * * * * * * * * * //

dimensions      [0 1 -1 0 0 0 0];

internalField   nonuniform List<vector> 
12225
(
(-7.80682e-06 1.06128e-06 0)
(-3.77763e-06 -5.8555e-07 0)
(2.99002e-05 -1.49844e-06 0)
(8.4494e-05 -2.30228e-06 0)
(0.00015614 -2.99053e-06 0)
(0.000241618 -3.64575e-06 0)
(0.000339081 -4.29498e-06 0)
(0.000447224 -4.96653e-06 0)
(0.000565185 -5.68939e-06 0)
(0.000692507 -6.51094e-06 0)
(0.000829268 -7.51338e-06 0)
(0.000976247 -8.84011e-06 0)
(0.00113509 -1.07493e-05 0)
(0.00130783 -1.36474e-05 0)
(0.00149403 -1.72695e-05 0)
(0.00168513 -1.6197e-05 0)
(0.00180017 -2.06178e-05 0)
(0.000133287 0.00113866 0)
(-1.59973e-05 2.74487e-06 0)
(5.47121e-06 -9.13225e-06 0)
(0.000107462 -2.08809e-05 0)
(0.000269234 -3.10533e-05 0)
(0.00048001 -4.01247e-05 0)
(0.000730675 -4.86127e-05 0)
(0.00101549 -5.68461e-05 0)
(0.00133007 -6.50386e-05 0)
(0.00167102 -7.3378e-05 0)
(0.00203564 -8.21064e-05 0)
(0.0024218 -9.15655e-05 0)
(0.00282759 -0.000102159 0)
(0.00324982 -0.00011404 0)
(0.00367851 -0.000125612 0)
(0.00408095 -0.000126277 0)
(0.00434957 -6.09344e-05 0)
(0.00417477 0.000305979 0)
(0.000946542 0.00284959 0)
(-1.85686e-05 3.28161e-06 0)
(3.0154e-05 -2.91559e-05 0)
(0.000203879 -6.30124e-05 0)
(0.000473746 -9.2697e-05 0)
(0.000822882 -0.000119362 0)
(0.00123667 -0.000144222 0)
(0.00170518 -0.000168107 0)
(0.00222037 -0.000191485 0)
(0.00277531 -0.000214666 0)
(0.00336343 -0.000237922 0)
(0.00397777 -0.000261407 0)
(0.00460923 -0.000284615 0)
(0.00524188 -0.000304503 0)
(0.00584032 -0.000309355 0)
(0.00631828 -0.000257215 0)
(0.00644835 2.17203e-06 0)
(0.00574707 0.000998802 0)
(0.00192672 0.0048986 0)
(-1.68918e-05 2.87299e-07 0)
(6.82034e-05 -6.42363e-05 0)
(0.000316979 -0.000132653 0)
(0.000694964 -0.000193308 0)
(0.00118005 -0.00024804 0)
(0.00175257 -0.000298912 0)
(0.00239816 -0.000347364 0)
(0.00310449 -0.000394064 0)
(0.00386 -0.000439217 0)
(0.00465258 -0.000482609 0)
(0.00546771 -0.000523144 0)
(0.00628488 -0.000557142 0)
(0.00706927 -0.000573459 0)
(0.00775259 -0.000539845 0)
(0.00819245 -0.00036306 0)
(0.00807768 0.0002275 0)
(0.00688597 0.00201041 0)
(0.00302182 0.00707932 0)
(-1.21437e-05 -9.01881e-06 0)
(0.000117186 -0.0001178 0)
(0.00044368 -0.000233286 0)
(0.000928556 -0.000336693 0)
(0.0015452 -0.000430314 0)
(0.00226939 -0.000517059 0)
(0.00308212 -0.000598911 0)
(0.00396618 -0.0006765 0)
(0.00490436 -0.000749409 0)
(0.00587731 -0.000815992 0)
(0.00686066 -0.000872151 0)
(0.00781936 -0.000907785 0)
(0.00869656 -0.000897747 0)
(0.00939111 -0.000779516 0)
(0.00971804 -0.00039735 0)
(0.00933868 0.000631446 0)
(0.00780088 0.00321685 0)
(0.00418443 0.0091796 0)
(-5.30796e-06 -2.72626e-05 0)
(0.000174288 -0.000193573 0)
(0.000579904 -0.000368761 0)
(0.00116874 -0.000526903 0)
(0.0019102 -0.000670428 0)
(0.00277595 -0.000802935 0)
(0.00374228 -0.000926696 0)
(0.00478659 -0.00104184 0)
(0.00588508 -0.00114652 0)
(0.00700994 -0.00123628 0)
(0.00812529 -0.00130176 0)
(0.00918026 -0.00132273 0)
(0.0100965 -0.00125458 0)
(0.0107469 -0.000998365 0)
(0.0109263 -0.000336557 0)
(0.0103198 0.00119362 0)
(0.00860319 0.00451821 0)
(0.00537616 0.0111143 0)
(2.77219e-06 -5.68591e-05 0)
(0.00023634 -0.000295361 0)
(0.000720574 -0.000543029 0)
(0.00140824 -0.000767916 0)
(0.00226501 -0.000972316 0)
(0.0032589 -0.00116024 0)
(0.00436149 -0.00133378 0)
(0.00554447 -0.0014919 0)
(0.00677689 -0.0016302 0)
(0.00802174 -0.00173977 0)
(0.00923122 -0.00180346 0)
(0.0103394 -0.00178751 0)
(0.0112504 -0.00162411 0)
(0.011823 -0.00117705 0)
(0.0118555 -0.000178237 0)
(0.011092 0.00187385 0)
(0.00934889 0.00583866 0)
(0.00657056 0.0128542 0)
(1.13633e-05 -9.99403e-05 0)
(0.000299861 -0.000426694 0)
(0.000859658 -0.000759619 0)
(0.0016383 -0.00106297 0)
(0.00259773 -0.00133879 0)
(0.00370273 -0.00159112 0)
(0.00492036 -0.00182128 0)
(0.00621657 -0.00202612 0)
(0.00755313 -0.00219743 0)
(0.00888392 -0.00232002 0)
(0.0101501 -0.00236665 0)
(0.0112735 -0.00228758 0)
(0.0121477 -0.00199077 0)
(0.0126301 -0.00130721 0)
(0.0125431 6.3694e-05 0)
(0.0117058 0.00262244 0)
(0.0100592 0.0071147 0)
(0.00774583 0.0143796 0)
(1.98269e-05 -0.000158192 0)
(0.000361138 -0.000590448 0)
(0.000990279 -0.00102117 0)
(0.00184876 -0.00141403 0)
(0.00289466 -0.00177094 0)
(0.00408999 -0.00209559 0)
(0.00539763 -0.00238773 0)
(0.00677815 -0.00264107 0)
(0.00818653 -0.00284223 0)
(0.00956856 -0.00296803 0)
(0.0108566 -0.00297944 0)
(0.0119646 -0.00280982 0)
(0.0127838 -0.00234484 0)
(0.0131824 -0.00139144 0)
(0.0130198 0.000362982 0)
(0.0121912 0.00338609 0)
(0.0107322 0.00829119 0)
(0.00887888 0.0156723 0)
(2.75968e-05 -0.000232646 0)
(0.000416313 -0.000788395 0)
(0.00110488 -0.00132891 0)
(0.00202826 -0.00182121 0)
(0.00314061 -0.00226757 0)
(0.00440163 -0.00267091 0)
(0.00577067 -0.00302861 0)
(0.00720368 -0.00333016 0)
(0.00865004 -0.00355568 0)
(0.0100494 -0.00367277 0)
(0.0113285 -0.00362978 0)
(0.0123991 -0.00334406 0)
(0.0131577 -0.0026836 0)
(0.0134927 -0.00144245 0)
(0.013306 0.000684714 0)
(0.012559 0.00411153 0)
(0.0113498 0.00932002 0)
(0.00994229 0.0167136 0)
(3.41695e-05 -0.000323555 0)
(0.000461507 -0.00102063 0)
(0.00119548 -0.00168198 0)
(0.00216464 -0.00228213 0)
(0.00331933 -0.0028245 0)
(0.00461756 -0.00331099 0)
(0.00601611 -0.00373584 0)
(0.0074676 -0.0040833 0)
(0.00891757 -0.00432603 0)
(0.0103022 -0.0044217 0)
(0.0115468 -0.00430641 0)
(0.0125662 -0.00388406 0)
(0.0132689 -0.00301137 0)
(0.0135687 -0.00148117 0)
(0.0134091 0.000989066 0)
(0.0128027 0.00474804 0)
(0.0118821 0.0101591 0)
(0.0109022 0.0174834 0)
(3.88086e-05 -0.000421489 0)
(0.000490463 -0.00126297 0)
(0.00124921 -0.00204382 0)
(0.00223879 -0.00274869 0)
(0.00340648 -0.00338307 0)
(0.00470944 -0.00394789 0)
(0.0061033 -0.00443395 0)
(0.00753919 -0.00482003 0)
(0.00896131 -0.00507142 0)
(0.0103056 -0.00513679 0)
(0.0114998 -0.00494236 0)
(0.0124661 -0.00438316 0)
(0.013128 -0.00331214 0)
(0.013424 -0.00153045 0)
(0.0133305 0.00121402 0)
(0.0128928 0.00520831 0)
(0.0122553 0.0107233 0)
(0.0116492 0.0179243 0)
(4.2372e-05 -0.000529426 0)
(0.000506397 -0.00152498 0)
(0.00127222 -0.00242977 0)
(0.00226073 -0.00324149 0)
(0.00341659 -0.00396856 0)
(0.004697 -0.00461109 0)
(0.00605767 -0.00515616 0)
(0.00744985 -0.00557681 0)
(0.00881851 -0.005831 0)
(0.010102 -0.0058591 0)
(0.0112334 -0.00557936 0)
(0.0121453 -0.00488153 0)
(0.012778 -0.00362019 0)
(0.0130933 -0.00161119 0)
(0.0130941 0.0013628 0)
(0.0128466 0.00552981 0)
(0.0124942 0.0110835 0)
(0.0122398 0.0181183 0)
(4.47183e-05 -0.000662985 0)
(0.000504997 -0.00184608 0)
(0.00125239 -0.00289625 0)
(0.00220783 -0.00383092 0)
(0.00331448 -0.00466315 0)
(0.00453086 -0.00539227 0)
(0.00581469 -0.00600103 0)
(0.00711972 -0.00645594 0)
(0.00839465 -0.0067071 0)
(0.00958377 -0.0066869 0)
(0.0106299 -0.00630747 0)
(0.0114798 -0.00545734 0)
(0.0120932 -0.00399922 0)
(0.0124552 -0.00177173 0)
(0.0125904 0.00140062 0)
(0.012576 0.00568526 0)
(0.0125447 0.0112062 0)
(0.0126661 0.0180025 0)
(4.43843e-05 -0.00082072 0)
(0.000474473 -0.00222294 0)
(0.00116259 -0.00343686 0)
(0.00203462 -0.00450681 0)
(0.00303534 -0.00545291 0)
(0.00412693 -0.0062741 0)
(0.00527201 -0.0069487 0)
(0.00643032 -0.00743645 0)
(0.00755828 -0.00768003 0)
(0.00861063 -0.00760548 0)
(0.00954394 -0.00712218 0)
(0.0103225 -0.00612287 0)
(0.0109262 -0.00448531 0)
(0.0113601 -0.00207769 0)
(0.0116631 0.00123011 0)
(0.0119134 0.00554812 0)
(0.0122253 0.0109422 0)
(0.012734 0.0174107 0)
(3.94725e-05 -0.000992958 0)
(0.000400049 -0.00263223 0)
(0.000969015 -0.00401781 0)
(0.00168444 -0.00522585 0)
(0.00249877 -0.00628643 0)
(0.00338154 -0.00719907 0)
(0.00430425 -0.00793834 0)
(0.005237 -0.00845827 0)
(0.00614868 -0.00869586 0)
(0.00700886 -0.00857391 0)
(0.0077914 -0.00800363 0)
(0.00847942 -0.00688763 0)
(0.00907128 -0.00512441 0)
(0.00958645 -0.00261522 0)
(0.0100697 0.000725915 0)
(0.0105915 0.00495938 0)
(0.0112433 0.0101063 0)
(0.0121275 0.0161375 0)
(2.79435e-05 -0.00115438 0)
(0.000266107 -0.00301389 0)
(0.00063633 -0.00455485 0)
(0.00109818 -0.00588486 0)
(0.00162076 -0.00704579 0)
(0.0021862 -0.00803939 0)
(0.00277939 -0.00883835 0)
(0.00338545 -0.00939351 0)
(0.00399013 -0.00963958 0)
(0.00458147 -0.00950034 0)
(0.00515248 -0.00889349 0)
(0.00570451 -0.00773587 0)
(0.00625074 -0.0059492 0)
(0.00681887 -0.00346663 0)
(0.00745214 -0.000240094 0)
(0.00820749 0.00375225 0)
(0.00915235 0.00850041 0)
(0.0103598 0.013959 0)
(8.06675e-06 -0.00125409 0)
(6.21257e-05 -0.00324843 0)
(0.000142113 -0.00488217 0)
(0.000238924 -0.00628421 0)
(0.000348362 -0.00750644 0)
(0.00047068 -0.00855422 0)
(0.00060806 -0.00940147 0)
(0.000764131 -0.00999986 0)
(0.000944355 -0.0102864 0)
(0.00115694 -0.0101903 0)
(0.00141413 -0.00963926 0)
(0.00173361 -0.00856567 0)
(0.00213969 -0.00691251 0)
(0.00266374 -0.00463868 0)
(0.00334348 -0.00172361 0)
(0.00422091 0.00182927 0)
(0.00534065 0.00599097 0)
(0.00675105 0.0107094 0)
(-2.11618e-05 -0.00120727 0)
(-0.00020249 -0.00313737 0)
(-0.000488187 -0.00472368 0)
(-0.000849362 -0.0060906 0)
(-0.00125747 -0.00729107 0)
(-0.00169154 -0.00833393 0)
(-0.00213112 -0.00919802 0)
(-0.00255369 -0.00984129 0)
(-0.00293424 -0.0102086 0)
(-0.0032452 -0.0102389 0)
(-0.00345664 -0.00987192 0)
(-0.00353659 -0.00905407 0)
(-0.00345165 -0.00774388 0)
(-0.00316794 -0.00591591 0)
(-0.00265249 -0.00356343 0)
(-0.00187461 -0.000699554 0)
(-0.000806317 0.00264298 0)
(0.000579898 0.00641295 0)
(-4.11678e-05 -0.000992111 0)
(-0.000400023 -0.00262284 0)
(-0.000966622 -0.00399294 0)
(-0.00168561 -0.00519123 0)
(-0.0025072 -0.00625844 0)
(-0.00339823 -0.00720369 0)
(-0.00432742 -0.00801219 0)
(-0.00526082 -0.00865144 0)
(-0.00616128 -0.00907733 0)
(-0.00698887 -0.00924025 0)
(-0.00770188 -0.00909091 0)
(-0.0082582 -0.00858561 0)
(-0.00861684 -0.00769079 0)
(-0.00873968 -0.00638628 0)
(-0.00859323 -0.00466732 0)
(-0.0081499 -0.00254512 0)
(-0.00738713 -4.63476e-05 0)
(-0.00628513 0.00278841 0)
(-4.88689e-05 -0.000751145 0)
(-0.000489511 -0.00204983 0)
(-0.00119297 -0.00317573 0)
(-0.00209379 -0.00417539 0)
(-0.00313512 -0.0050755 0)
(-0.00427993 -0.00588453 0)
(-0.00549318 -0.00659341 0)
(-0.00673689 -0.00717863 0)
(-0.00796947 -0.00760649 0)
(-0.00914619 -0.0078379 0)
(-0.0102204 -0.00783312 0)
(-0.0111451 -0.00755619 0)
(-0.0118751 -0.00697878 0)
(-0.0123692 -0.00608293 0)
(-0.0125915 -0.00486279 0)
(-0.0125138 -0.00332511 0)
(-0.0121142 -0.00148876 0)
(-0.0113753 0.000616136 0)
(-4.74309e-05 -0.00051928 0)
(-0.00050019 -0.00149367 0)
(-0.00123835 -0.00237293 0)
(-0.00219704 -0.00316431 0)
(-0.00332061 -0.00388238 0)
(-0.00457246 -0.00453498 0)
(-0.0059176 -0.00511802 0)
(-0.00731833 -0.00561599 0)
(-0.00873338 -0.00600472 0)
(-0.0101181 -0.00625487 0)
(-0.0114254 -0.00633563 0)
(-0.0126074 -0.00621826 0)
(-0.0136179 -0.00587914 0)
(-0.0144136 -0.00530215 0)
(-0.0149573 -0.00448013 0)
(-0.0152186 -0.00341542 0)
(-0.0151742 -0.00211971 0)
(-0.0148069 -0.00061375 0)
(-3.93604e-05 -0.000326483 0)
(-0.000453417 -0.00102092 0)
(-0.00115183 -0.0016769 0)
(-0.00207653 -0.00227303 0)
(-0.00317724 -0.00281581 0)
(-0.00441961 -0.00331273 0)
(-0.00577078 -0.00376338 0)
(-0.007196 -0.00415859 0)
(-0.0086574 -0.00448207 0)
(-0.0101137 -0.00471289 0)
(-0.011521 -0.00482825 0)
(-0.0128338 -0.00480616 0)
(-0.0140072 -0.0046278 0)
(-0.014999 -0.00427936 0)
(-0.0157712 -0.00375332 0)
(-0.0162923 -0.00304896 0)
(-0.0165378 -0.00217241 0)
(-0.0164891 -0.00113681 0)
(-2.73055e-05 -0.000183019 0)
(-0.000372047 -0.000654434 0)
(-0.000984687 -0.00112154 0)
(-0.00181615 -0.00154766 0)
(-0.00282258 -0.00193535 0)
(-0.00397244 -0.00229172 0)
(-0.00523612 -0.00261864 0)
(-0.00658329 -0.00291141 0)
(-0.00798125 -0.00315973 0)
(-0.00939422 -0.00334946 0)
(-0.0107835 -0.00346458 0)
(-0.0121085 -0.00348918 0)
(-0.0133282 -0.00340907 0)
(-0.0144031 -0.00321326 0)
(-0.015297 -0.00289486 0)
(-0.0159786 -0.00245164 0)
(-0.0164227 -0.00188607 0)
(-0.0166105 -0.00120567 0)
(-1.37113e-05 -8.70708e-05 0)
(-0.000276221 -0.000390896 0)
(-0.000780787 -0.000705874 0)
(-0.00148662 -0.000992377 0)
(-0.00235584 -0.00125188 0)
(-0.00335988 -0.0014908 0)
(-0.00447309 -0.00171197 0)
(-0.00567026 -0.00191345 0)
(-0.00692471 -0.00208916 0)
(-0.00820707 -0.00223012 0)
(-0.00948517 -0.00232575 0)
(-0.0107246 -0.00236524 0)
(-0.01189 -0.00233864 0)
(-0.0129463 -0.00223785 0)
(-0.0138609 -0.00205732 0)
(-0.0146044 -0.00179447 0)
(-0.0151524 -0.00144974 0)
(-0.0154868 -0.00102688 0)
(-7.13028e-07 -3.0572e-05 0)
(-0.000181837 -0.000214176 0)
(-0.000573201 -0.000411777 0)
(-0.00114033 -0.00058977 0)
(-0.00185056 -0.000749811 0)
(-0.00267877 -0.000897146 0)
(-0.00360371 -0.00103456 0)
(-0.00460558 -0.00116158 0)
(-0.00566378 -0.00127489 0)
(-0.00675559 -0.00136919 0)
(-0.00785574 -0.00143803 0)
(-0.0089367 -0.00147465 0)
(-0.00996956 -0.00147262 0)
(-0.0109252 -0.00142655 0)
(-0.0117756 -0.00133247 0)
(-0.0124951 -0.00118816 0)
(-0.0130617 -0.000993209 0)
(-0.0134587 -0.000749085 0)
(9.80513e-06 -3.13922e-06 0)
(-0.000100377 -0.00010415 0)
(-0.000384199 -0.000215494 0)
(-0.000811815 -0.000314191 0)
(-0.00135569 -0.000402104 0)
(-0.00199485 -0.000482965 0)
(-0.0027128 -0.000558887 0)
(-0.00349502 -0.000629963 0)
(-0.0043267 -0.000694595 0)
(-0.00519144 -0.000749979 0)
(-0.00607069 -0.000792594 0)
(-0.00694386 -0.000818653 0)
(-0.00778888 -0.0008245 0)
(-0.00858309 -0.000806945 0)
(-0.00930424 -0.000763535 0)
(-0.00993146 -0.000692728 0)
(-0.0104462 -0.00059395 0)
(-0.0108346 -0.000467521 0)
(1.60757e-05 5.64401e-06 0)
(-3.93313e-05 -4.17783e-05 0)
(-0.000226799 -9.42063e-05 0)
(-0.000520942 -0.000139681 0)
(-0.000900096 -0.00017974 0)
(-0.00134835 -0.000216536 0)
(-0.00185414 -0.000251308 0)
(-0.00240783 -0.000284251 0)
(-0.00299981 -0.000314721 0)
(-0.00361936 -0.00034148 0)
(-0.00425413 -0.000362926 0)
(-0.00489014 -0.000377301 0)
(-0.00551211 -0.000382875 0)
(-0.00610404 -0.000378099 0)
(-0.00664996 -0.000361736 0)
(-0.00713455 -0.00033294 0)
(-0.0075438 -0.000291292 0)
(-0.00786727 -0.000236658 0)
(1.62918e-05 5.0675e-06 0)
(-2.8863e-06 -1.13773e-05 0)
(-0.000106882 -2.8813e-05 0)
(-0.000276734 -4.34909e-05 0)
(-0.00049807 -5.62322e-05 0)
(-0.000760887 -6.79146e-05 0)
(-0.00105845 -7.90355e-05 0)
(-0.00138548 -8.97106e-05 0)
(-0.0017368 -9.97617e-05 0)
(-0.0021066 -0.000108805 0)
(-0.00248801 -0.00011633 0)
(-0.00287312 -0.000121763 0)
(-0.00325308 -0.00012453 0)
(-0.0036185 -0.000124107 0)
(-0.00395978 -0.000120056 0)
(-0.00426762 -0.000112062 0)
(-0.0045332 -9.99197e-05 0)
(-0.00474995 -8.3417e-05 0)
(8.72945e-06 1.78481e-06 0)
(7.45542e-06 -5.47498e-07 0)
(-2.52011e-05 -1.99418e-06 0)
(-8.08685e-05 -3.13181e-06 0)
(-0.00015411 -4.07735e-06 0)
(-0.000241371 -4.94128e-06 0)
(-0.00034046 -5.77877e-06 0)
(-0.000449775 -6.60723e-06 0)
(-0.000567784 -7.41732e-06 0)
(-0.000692731 -8.18179e-06 0)
(-0.000822489 -8.86151e-06 0)
(-0.000954529 -9.41141e-06 0)
(-0.00108597 -9.78432e-06 0)
(-0.00121368 -9.93566e-06 0)
(-0.00133442 -9.82656e-06 0)
(-0.00144496 -9.43084e-06 0)
(-0.00154215 -8.6988e-06 0)
(-0.0016236 -7.57276e-06 0)
(1.29534e-05 -3.00681e-05 7.5347e-24)
(9.13271e-05 -7.00603e-05 -9.97626e-24)
(0.000217501 -9.30458e-05 0)
(0.000370459 -0.000102144 0)
(0.000524558 -0.000101579 0)
(0.000661557 -9.44412e-05 8.40332e-24)
(0.000768818 -8.31139e-05 0)
(0.000837434 -6.94451e-05 0)
(0.00086123 -5.4748e-05 0)
(0.000836396 -3.98149e-05 0)
(0.000760743 -2.52624e-05 -9.28017e-25)
(0.000632948 -1.1371e-05 0)
(0.000452404 1.81023e-06 0)
(0.000218818 1.43689e-05 0)
(-6.80603e-05 2.64808e-05 0)
(-0.000408612 3.83775e-05 1.08121e-23)
(-0.000803442 5.03171e-05 0)
(-0.00125341 6.25572e-05 0)
(-0.00175959 7.53325e-05 0)
(-0.00232323 8.88384e-05 0)
(-0.00294557 0.000103219 0)
(-0.00362774 0.000118559 0)
(-0.00437056 0.000134879 0)
(-0.00517435 0.000152128 3.48928e-23)
(-0.00603874 0.000170191 -3.80048e-23)
(-0.00696246 0.000188881 4.10306e-23)
(-0.00794318 0.000207946 4.39214e-23)
(-0.00897735 0.00022707 0)
(-0.01006 0.000245877 0)
(-0.0111848 0.000263935 -5.12105e-23)
(-0.0123438 0.000280768 -5.29629e-23)
(-0.0135275 0.000295858 0)
(-0.0147247 0.000308665 0)
(-0.0159231 0.000318635 -5.51912e-23)
(-0.0171085 0.000325222 0)
(-0.0182661 0.00032791 0)
(-0.0193796 0.000326229 5.13927e-23)
(-0.0204324 0.000319783 0)
(-0.0214074 0.00030827 4.47196e-23)
(-0.0222875 0.000291505 8.00524e-23)
(-0.0230561 0.000269434 0)
(-0.0236974 0.000242152 0)
(-0.0241966 0.000209899 0)
(-0.0245409 0.000173061 0)
(-0.0247192 0.000132212 0)
(-0.0247223 8.81651e-05 -1.33047e-23)
(-0.0245437 4.14323e-05 -3.40407e-23)
(-0.02418 -7.06706e-06 -5.57448e-23)
(-0.0236303 -5.63173e-05 0)
(-0.0228967 -0.000105344 1.00982e-22)
(-0.0219837 -0.000153207 0)
(-0.0208989 -0.000199019 -1.46656e-22)
(-0.0196517 -0.000241975 -1.68863e-22)
(-0.0182541 -0.000281383 0)
(-0.0167193 -0.000316683 0)
(-0.0150624 -0.00034746 0)
(-0.0132988 -0.000373449 -2.46124e-22)
(-0.0114449 -0.000394525 0)
(-0.0095172 -0.000410695 0)
(-0.00753194 -0.000422069 0)
(-0.00550511 -0.000428836 0)
(-0.00345222 -0.00043122 0)
(-0.00138829 -0.000429376 0)
(0.000672148 -0.00042329 0)
(0.00271548 -0.000413106 0)
(0.00472793 -0.000399233 2.84027e-22)
(0.00669563 -0.000381973 0)
(0.00860471 -0.000361443 0)
(0.010441 -0.000337662 -2.43913e-22)
(0.0121897 -0.000310611 -2.25941e-22)
(0.0138354 -0.000280266 0)
(0.0153619 -0.000246639 1.84399e-22)
(0.0167522 -0.000209816 -1.61374e-22)
(0.0179893 -0.000169996 0)
(0.0190559 -0.000127524 1.12399e-22)
(0.0199356 -8.29185e-05 0)
(0.020613 -3.68739e-05 0)
(0.0210752 9.73135e-06 -3.71365e-23)
(0.0213122 5.58001e-05 0)
(0.0213175 0.0001001 -9.64901e-24)
(0.02109 0.000141474 0)
(0.0206338 0.000178811 5.01587e-23)
(0.0199587 0.000210904 6.72868e-23)
(0.0190804 0.000236811 8.20292e-23)
(0.0180207 0.000255838 1.88501e-22)
(0.0168065 0.000267588 -2.07794e-22)
(0.0154694 0.000272014 0)
(0.014044 0.000269429 0)
(0.0125666 0.000260474 0)
(0.0110736 0.00024607 -2.36868e-22)
(0.00959959 0.000227334 -2.34148e-22)
(0.00817596 0.000205487 2.28567e-22)
(0.00682963 0.000181753 0)
(0.00558211 0.000157265 -2.11337e-22)
(0.00444913 0.000133002 -2.00876e-22)
(0.0034405 0.000109746 -1.89882e-22)
(0.00256053 8.80819e-05 0)
(0.00180848 6.84235e-05 0)
(0.00117921 5.10623e-05 0)
(0.000663799 3.62102e-05 -1.48156e-22)
(0.000250171 2.40223e-05 0)
(-7.61712e-05 1.459e-05 0)
(-0.000331302 7.91108e-06 1.25364e-22)
(-0.000531837 3.84688e-06 0)
(-0.000693772 2.0888e-06 0)
(-0.000831373 2.20137e-06 1.118e-22)
(-0.000956309 3.65119e-06 0)
(-0.0010771 5.87733e-06 0)
(-0.001199 8.36223e-06 -1.05168e-22)
(-0.00132425 1.06832e-05 -1.03802e-22)
(-0.00145261 1.25386e-05 0)
(-0.00158207 1.37503e-05 1.01505e-22)
(-0.00170951 1.4247e-05 0)
(-0.0018313 1.40408e-05 -9.91328e-23)
(-0.00194383 1.32e-05 0)
(-0.00204382 1.18277e-05 -9.6228e-23)
(-0.00212858 1.00436e-05 -9.45219e-23)
(-0.0021961 7.97212e-06 0)
(-0.00224515 5.73235e-06 0)
(-0.00227524 3.42209e-06 0)
(-0.00228664 1.13115e-06 0)
(-0.00228015 -9.21146e-07 0)
(-0.00225708 -2.81867e-06 0)
(-0.00221929 -4.48623e-06 0)
(-0.00216884 -5.87493e-06 -7.70882e-23)
(-0.00210801 -6.96809e-06 7.49036e-23)
(-0.00203912 -7.76529e-06 0)
(-0.00196448 -8.27869e-06 0)
(-0.0018863 -8.53051e-06 0)
(-0.00180658 -8.55032e-06 0)
(-0.00172711 -8.37229e-06 1.31338e-22)
(-0.00164945 -8.03267e-06 0)
(-0.00157484 -7.56764e-06 -1.2575e-22)
(-0.00150429 -7.0116e-06 1.23313e-22)
(-0.00143853 -6.39593e-06 0)
(-0.00137806 -5.74814e-06 0)
(-0.00132317 -5.09148e-06 0)
(-0.00127397 -4.44484e-06 -1.15454e-22)
(-0.00123041 -3.8229e-06 -1.13839e-22)
(-0.00119233 -3.23649e-06 0)
(-0.00115946 -2.69302e-06 -1.10864e-22)
(-0.0011315 -2.197e-06 -1.09464e-22)
(-0.00110805 -1.75055e-06 1.08097e-22)
(-0.00108874 -1.35391e-06 0)
(-0.00107315 -1.00585e-06 0)
(-0.00106088 -7.04139e-07 1.04064e-22)
(-0.00105154 -4.45775e-07 0)
(-0.00104476 -2.27303e-07 0)
(-0.00104017 -4.49572e-08 0)
(-0.00103744 1.05204e-07 0)
(-0.00103629 2.25963e-07 -9.70155e-23)
(-0.00103643 3.12721e-07 -9.55115e-23)
(-0.00103763 3.57196e-07 0)
(-0.00103967 4.12136e-07 -9.23958e-23)
(-0.00104234 4.55404e-07 0)
(-0.00104548 4.8171e-07 0)
(-0.00104897 4.94538e-07 -8.74606e-23)
(-0.00105267 4.97915e-07 0)
(-0.0010565 4.9468e-07 -8.40126e-23)
(-0.00106039 4.87288e-07 0)
(-0.0010643 4.78029e-07 0)
(-0.00106819 4.69027e-07 -7.86416e-23)
(-0.00107207 4.62155e-07 0)
(-0.00107594 4.58858e-07 -7.49475e-23)
(-0.00107982 4.59901e-07 0)
(-0.00108375 4.65037e-07 0)
(-0.00108771 4.72651e-07 0)
(-0.00109169 4.79395e-07 6.72956e-23)
(-0.00109561 4.79744e-07 0)
(-0.0010993 4.64846e-07 -6.33047e-23)
(-0.00110251 4.23549e-07 0)
(-0.00110483 3.6363e-07 0)
(-0.00110567 2.71778e-07 0)
(-0.00110424 9.15645e-08 0)
(-0.00109952 -1.82236e-07 0)
(-0.00109011 -5.76454e-07 0)
(-0.00107389 -1.18506e-06 0)
(-0.00104714 -2.68026e-06 9.13281e-23)
(-0.00101227 -2.6946e-06 0)
(-0.000895933 -1.80927e-05 0)
(2.05945e-05 -0.000178281 -2.52316e-23)
(0.000152365 -0.000410879 3.37799e-23)
(0.000338857 -0.000533424 0)
(0.00054255 -0.000563367 -2.24523e-23)
(0.000721243 -0.000520133 0)
(0.000843155 -0.000421905 -9.01714e-24)
(0.000884452 -0.000284243 1.76344e-23)
(0.000826954 -0.000119792 1.51423e-23)
(0.000657022 6.1648e-05 0)
(0.000364519 0.000252892 8.99147e-24)
(-5.79009e-05 0.000448798 1.00021e-24)
(-0.000615347 0.000646071 0)
(-0.00131157 0.000842855 0)
(-0.00214944 0.00103837 0)
(-0.00313129 0.00123258 0)
(-0.00425921 0.00142592 -1.15983e-23)
(-0.00553513 0.00161904 0)
(-0.00696088 0.00181255 2.7992e-23)
(-0.00853803 0.00200686 0)
(-0.0102677 0.00220202 0)
(-0.0121503 0.00239759 -4.5741e-23)
(-0.0141851 0.00259258 0)
(-0.0163698 0.00278541 5.8231e-23)
(-0.0187004 0.00297386 -3.69605e-23)
(-0.0211703 0.00315516 4.01677e-23)
(-0.0237705 0.00332602 -4.32653e-23)
(-0.0264886 0.00348267 -4.6203e-23)
(-0.0293093 0.00362102 0)
(-0.0322137 0.00373675 0)
(-0.0351793 0.0038254 5.34765e-23)
(-0.0381804 0.00388258 -4.66813e-23)
(-0.0411879 0.00390407 0)
(-0.0441699 0.00388599 0)
(-0.0470917 0.00382498 5.71212e-23)
(-0.0499168 0.00371831 0)
(-0.0526072 0.00356407 0)
(-0.0551245 0.00336124 -5.29376e-23)
(-0.05743 0.00310985 0)
(-0.0594864 0.00281099 4.44267e-23)
(-0.0612577 0.00246689 -8.22896e-23)
(-0.0627108 0.0020809 0)
(-0.0638157 0.0016574 0)
(-0.0645465 0.00120173 -8.99851e-23)
(-0.0648818 0.000720052 -5.81084e-23)
(-0.064805 0.000219265 -2.28046e-23)
(-0.0643054 -0.00029315 -1.87065e-24)
(-0.0633779 -0.000809612 3.52189e-23)
(-0.0620229 -0.00132221 1.58008e-22)
(-0.0602465 -0.00182328 -1.45514e-22)
(-0.0580603 -0.00230556 -1.052e-22)
(-0.0554806 -0.00276244 0)
(-0.0525284 -0.0031881 1.5378e-22)
(-0.0492286 -0.0035776 -1.55978e-22)
(-0.0456094 -0.00392709 0)
(-0.0417013 -0.00423373 0)
(-0.037537 -0.00449583 0)
(-0.0331501 -0.00471268 2.63844e-22)
(-0.0285747 -0.00488456 0)
(-0.0238448 -0.00501251 -5.6776e-22)
(-0.0189938 -0.00509821 0)
(-0.014054 -0.00514371 -6.13603e-22)
(-0.00905671 -0.00515123 0)
(-0.00403211 -0.00512285 6.37043e-22)
(0.000990256 -0.00506021 0)
(0.00598251 -0.00496473 -6.22818e-22)
(0.0109164 -0.00483774 2.88663e-22)
(0.0157633 -0.00468012 0)
(0.0204944 -0.00449207 5.45684e-22)
(0.0250795 -0.00427316 2.66405e-22)
(0.0294871 -0.00402257 2.45938e-22)
(0.033683 -0.00373931 0)
(0.0376313 -0.00342249 1.79703e-22)
(0.0412934 -0.00307165 1.74188e-22)
(0.044629 -0.00268705 0)
(0.0475965 -0.00226998 -1.20863e-22)
(0.0501539 -0.00182309 1.72766e-22)
(0.0522601 -0.0013506 0)
(0.0538769 -0.000858449 3.98374e-23)
(0.0549704 -0.000354427 0)
(0.0555131 0.000151913 3.81585e-23)
(0.055487 0.000650555 0)
(0.0548853 0.00112919 -1.64324e-22)
(0.0537136 0.00157558 -7.23783e-23)
(0.0519917 0.0019778 8.63692e-23)
(0.0497548 0.00232479 1.94941e-22)
(0.0470532 0.00260713 -2.12016e-22)
(0.0439515 0.00281782 0)
(0.0405266 0.00295284 0)
(0.0368649 0.00301155 0)
(0.0330584 0.0029968 7.55873e-22)
(0.0292004 0.00291471 2.58822e-22)
(0.0253809 0.00277415 -2.53861e-22)
(0.0216825 0.00258606 0)
(0.0181765 0.00236248 -2.09564e-22)
(0.0149205 0.00211572 2.26244e-22)
(0.0119567 0.00185753 2.14776e-22)
(0.00931155 0.00159856 0)
(0.00699624 0.0013481 0)
(0.00500787 0.00111393 0)
(0.00333109 0.000902379 1.69908e-22)
(0.00194005 0.000718254 0)
(0.000800663 0.00056473 -2.93637e-22)
(-0.000126649 0.000443124 -4.25448e-22)
(-0.000884004 0.000352717 2.69518e-22)
(-0.00151277 0.000290717 0)
(-0.00205053 0.000252712 1.23822e-22)
(-0.00252881 0.000233153 0)
(-0.00297156 0.00022608 2.42905e-22)
(-0.00339467 0.000225831 -1.17857e-22)
(-0.0038065 0.000227588 -1.16644e-22)
(-0.0042091 0.0002277 0)
(-0.00459972 0.00022376 -3.49629e-22)
(-0.00497257 0.000214512 2.29873e-22)
(-0.00532027 0.000199642 1.14839e-22)
(-0.00563512 0.000179534 0)
(-0.00591009 0.000155036 1.11581e-22)
(-0.00613937 0.000127263 3.27734e-22)
(-0.00631885 9.7445e-05 0)
(-0.00644618 6.68089e-05 2.09985e-22)
(-0.0065209 3.64967e-05 2.05469e-22)
(-0.00654419 7.52101e-06 2.00715e-22)
(-0.00651884 -1.91375e-05 0)
(-0.00644893 -4.29639e-05 0)
(-0.00633946 -6.34641e-05 0)
(-0.00619617 -8.03481e-05 -9.08327e-23)
(-0.00602522 -9.35154e-05 -8.74756e-23)
(-0.0058329 -0.000103026 0)
(-0.00562538 -0.000109071 -1.66875e-22)
(-0.0054085 -0.000111948 -1.62703e-22)
(-0.00518764 -0.000112024 0)
(-0.00496755 -0.000109712 -1.54063e-22)
(-0.00475234 -0.000105446 -3.03706e-22)
(-0.00454538 -9.96512e-05 1.47769e-22)
(-0.00434935 -9.27342e-05 1.46938e-22)
(-0.00416623 -8.50655e-05 0)
(-0.00399741 -7.69717e-05 0)
(-0.00384368 -6.87312e-05 0)
(-0.0037054 -6.05729e-05 1.36245e-22)
(-0.00358247 -5.26778e-05 -1.3556e-22)
(-0.0034745 -4.51823e-05 -2.66468e-22)
(-0.00338083 -3.81831e-05 1.31136e-22)
(-0.00330064 -3.17426e-05 -1.30274e-22)
(-0.00323294 -2.58945e-05 -1.28055e-22)
(-0.0031767 -2.06493e-05 0)
(-0.00313084 -1.59994e-05 0)
(-0.00309427 -1.19239e-05 1.23837e-22)
(-0.00306593 -8.39181e-06 0)
(-0.00304479 -5.36604e-06 0)
(-0.00302991 -2.80548e-06 -2.37842e-22)
(-0.00302038 -6.67287e-07 0)
(-0.00301537 1.09024e-06 -1.1559e-22)
(-0.00301412 2.50087e-06 1.13853e-22)
(-0.00301596 3.59383e-06 0)
(-0.00302027 4.45549e-06 -1.10228e-22)
(-0.00302653 5.1061e-06 0)
(-0.00303426 5.56563e-06 0)
(-0.00304307 5.86772e-06 1.046e-22)
(-0.00305263 6.04471e-06 -2.05147e-22)
(-0.00306266 6.12659e-06 1.00607e-22)
(-0.00307295 6.1414e-06 0)
(-0.00308337 6.11522e-06 0)
(-0.00309383 6.07142e-06 -9.42552e-23)
(-0.00310428 6.02936e-06 0)
(-0.00311473 6.00227e-06 -8.9941e-23)
(-0.00312519 5.99444e-06 0)
(-0.00313569 5.9977e-06 0)
(-0.00314617 5.98767e-06 0)
(-0.00315653 5.91998e-06 -8.10626e-23)
(-0.00316647 5.72705e-06 0)
(-0.00317549 5.31511e-06 7.63551e-23)
(-0.00318278 4.56403e-06 0)
(-0.00318716 3.35888e-06 0)
(-0.00318698 1.52212e-06 -1.37832e-22)
(-0.00318005 -1.19651e-06 1.32677e-22)
(-0.00316348 -5.04384e-06 0)
(-0.00313354 -1.04172e-05 0)
(-0.00308489 -1.81164e-05 0)
(-0.00300944 -3.00248e-05 -3.3331e-22)
(-0.00290895 -4.8972e-05 0)
(-0.00267335 -9.53954e-05 1.9956e-22)
(1.74047e-05 -0.000340363 -3.56921e-24)
(0.000114183 -0.000738866 -5.05217e-23)
(0.000222655 -0.00090267 0)
(0.000301156 -0.000877065 4.85961e-23)
(0.000306262 -0.00070236 0)
(0.000204639 -0.000413587 0)
(-2.96671e-05 -4.02865e-05 3.50313e-24)
(-0.000417343 0.000393375 -1.51454e-23)
(-0.000974908 0.000868241 -1.60481e-23)
(-0.00171547 0.00136962 -8.96067e-24)
(-0.00264938 0.00188683 0)
(-0.00378479 0.00241244 0)
(-0.00512825 0.00294165 2.30249e-24)
(-0.00668502 0.00347165 -3.59086e-24)
(-0.00845937 0.00400103 1.22915e-23)
(-0.0104547 0.00452919 0)
(-0.0126734 0.0050558 3.11812e-23)
(-0.0151169 0.00558037 -2.751e-23)
(-0.0177854 0.00610179 0)
(-0.0206773 0.00661808 6.30634e-23)
(-0.023789 0.00712605 4.46561e-23)
(-0.0271143 0.00762127 -8.63493e-23)
(-0.0306438 0.00809792 -5.65784e-23)
(-0.0343647 0.00854891 0)
(-0.03826 0.00896594 1.22996e-22)
(-0.0423084 0.00933975 1.35219e-22)
(-0.0464842 0.00966035 0)
(-0.0507568 0.00991735 1.58711e-22)
(-0.0550911 0.0101003 0)
(-0.0594478 0.0101991 1.7953e-22)
(-0.0637836 0.0102043 9.71992e-23)
(-0.0680519 0.0101076 0)
(-0.0722035 0.00990216 0)
(-0.0761875 0.0095828 0)
(-0.0799523 0.00914651 0)
(-0.0834465 0.00859256 0)
(-0.0866199 0.00792262 0)
(-0.0894248 0.00714092 1.93416e-22)
(-0.0918166 0.00625411 -2.68516e-22)
(-0.093755 0.0052713 0)
(-0.0952046 0.00420376 0)
(-0.0961359 0.00306468 0)
(-0.0965252 0.00186883 -1.83799e-23)
(-0.0963556 0.000632245 5.53783e-23)
(-0.0956168 -0.000628052 6.43445e-23)
(-0.0943062 -0.00189455 7.94584e-24)
(-0.0924274 -0.00314972 3.15369e-23)
(-0.0899904 -0.00437679 -9.56996e-23)
(-0.0870114 -0.00555994 2.37738e-23)
(-0.0835123 -0.00668471 -1.59669e-22)
(-0.07952 -0.00773825 0)
(-0.0750658 -0.00870968 -2.50572e-22)
(-0.0701846 -0.00959022 2.49286e-23)
(-0.0649142 -0.0103734 0)
(-0.0592944 -0.0110548 0)
(-0.0533665 -0.0116326 4.24057e-22)
(-0.0471721 -0.0121067 0)
(-0.0407526 -0.0124789 0)
(-0.0341489 -0.0127526 -5.0155e-22)
(-0.0274003 -0.0129322 -1.10735e-21)
(-0.020545 -0.0130227 6.01221e-22)
(-0.0136193 -0.0130295 0)
(-0.00665778 -0.0129576 -6.27958e-22)
(0.000305413 -0.0128111 0)
(0.00723841 -0.0125932 -5.63536e-22)
(0.0141092 -0.0123061 -5.93612e-22)
(0.0208845 -0.0119505 1.08363e-21)
(0.0275304 -0.0115263 4.86396e-22)
(0.0340113 -0.0110316 0)
(0.0402889 -0.0104636 -8.70722e-22)
(0.0463217 -0.00981917 0)
(0.0520645 -0.00909488 -1.06151e-21)
(0.0574681 -0.00828804 -5.97283e-22)
(0.0624795 -0.00739726 -4.98151e-22)
(0.0670427 -0.00642319 3.97258e-22)
(0.0710991 -0.00536925 -4.62736e-22)
(0.0745888 -0.00424219 0)
(0.0774528 -0.00305271 0)
(0.079635 -0.00181572 5.42038e-24)
(0.081085 -0.000550445 -1.08964e-22)
(0.0817608 0.000719996 0)
(0.0816305 0.00196826 1.06085e-22)
(0.0806796 0.00316483 0)
(0.0789112 0.00427911 -5.1676e-22)
(0.0763482 0.00528075 9.63613e-24)