/*--------------------------------*- C++ -*----------------------------------*\
  =========                 |
  \\      /  F ield         | OpenFOAM: The Open Source CFD Toolbox
   \\    /   O peration     | Website:  https://openfoam.org
    \\  /    A nd           | Version:  8
     \\/     M anipulation  |
\*---------------------------------------------------------------------------*/
FoamFile
{
    version     2.0;
    format      ascii;
    class       volScalarField;
    location    "0.94";
    object      p;
}
// * * * * * * * * * * * * * * * * * * * * * * * * * * * * * * * * * * * * * //

dimensions      [0 2 -2 0 0 0 0];

internalField   nonuniform List<scalar> 
12225
(
-0.00155733
-0.00153394
-0.00151111
-0.00149376
-0.00148612
-0.00149004
-0.00150714
-0.00153894
-0.00158728
-0.00165458
-0.00174431
-0.00186194
-0.00201647
-0.00222385
-0.00251332
-0.00293916
-0.00365637
-0.00527734
-0.00155714
-0.00153624
-0.00151575
-0.00150049
-0.00149472
-0.00150035
-0.00151905
-0.00155237
-0.00160215
-0.00167077
-0.00176165
-0.00188003
-0.00203431
-0.00223871
-0.0025173
-0.00291082
-0.00349892
-0.00458522
-0.00155785
-0.00153922
-0.00152133
-0.00150846
-0.00150485
-0.00151245
-0.00153295
-0.00156792
-0.00161916
-0.00168897
-0.00178059
-0.00189879
-0.00205092
-0.00224845
-0.00250856
-0.00285426
-0.00329584
-0.00397385
-0.0015597
-0.00154256
-0.00152684
-0.00151615
-0.00151452
-0.0015239
-0.00154598
-0.00158228
-0.00163454
-0.00170488
-0.00179618
-0.00191251
-0.0020597
-0.00224591
-0.00248108
-0.00277341
-0.00310108
-0.00352669
-0.00156257
-0.00154625
-0.00153229
-0.00152352
-0.00152367
-0.00153462
-0.00155802
-0.00159531
-0.00164808
-0.00171821
-0.00180808
-0.00192083
-0.00206051
-0.00223184
-0.00243844
-0.00267823
-0.00292003
-0.00318408
-0.00156628
-0.00155029
-0.00153769
-0.00153064
-0.00153238
-0.0015447
-0.00156915
-0.00160707
-0.00165985
-0.00172902
-0.00181638
-0.001924
-0.00205409
-0.00220821
-0.00238511
-0.00257652
-0.00275172
-0.00291046
-0.00157064
-0.00155457
-0.00154299
-0.00153742
-0.00154054
-0.001554
-0.00157922
-0.00161739
-0.00166964
-0.0017371
-0.00182092
-0.00192207
-0.00204102
-0.00217676
-0.00232472
-0.00247371
-0.00259754
-0.00268897
-0.00157539
-0.00155895
-0.00154805
-0.00154372
-0.00154798
-0.00156233
-0.001588
-0.00162599
-0.00167716
-0.0017422
-0.00182155
-0.00191517
-0.00202204
-0.00213923
-0.00226036
-0.00237366
-0.00245887
-0.00250867
-0.0015802
-0.00156323
-0.00155272
-0.00154937
-0.00155453
-0.00156949
-0.00159527
-0.00163265
-0.00168219
-0.00174414
-0.00181828
-0.00190364
-0.00199807
-0.00209743
-0.00219465
-0.00227898
-0.00233588
-0.00236056
-0.00158467
-0.00156712
-0.00155679
-0.00155419
-0.00156001
-0.00157528
-0.00160081
-0.00163717
-0.00168458
-0.00174288
-0.00181124
-0.00188799
-0.00197016
-0.00205304
-0.00212973
-0.00219122
-0.0022278
-0.00223754
-0.00158838
-0.00157028
-0.00156002
-0.00155797
-0.00156419
-0.00157948
-0.00160443
-0.00163936
-0.00168422
-0.00173842
-0.0018007
-0.00186882
-0.00193937
-0.00200753
-0.00206707
-0.00211092
-0.00213309
-0.00213401
-0.00159064
-0.00157217
-0.00156195
-0.00156025
-0.00156662
-0.00158167
-0.00160579
-0.00163908
-0.00168127
-0.00173148
-0.0017881
-0.0018486
-0.00190938
-0.00196582
-0.00201244
-0.00204383
-0.00205639
-0.00205223
-0.00159133
-0.00157311
-0.00156292
-0.00156149
-0.0015679
-0.00158252
-0.00160558
-0.001637
-0.00167628
-0.00172232
-0.00177329
-0.0018265
-0.0018784
-0.00192473
-0.00196092
-0.00198293
-0.00198889
-0.00198106
-0.00158971
-0.00157243
-0.00156246
-0.00156127
-0.00156758
-0.00158148
-0.00160305
-0.00163204
-0.00166776
-0.00170895
-0.00175363
-0.00179911
-0.00184204
-0.0018787
-0.00190545
-0.0019195
-0.00192012
-0.00190931
-0.00158418
-0.0015687
-0.00155947
-0.00155857
-0.0015646
-0.00157743
-0.00159699
-0.00162292
-0.0016544
-0.00169009
-0.00172801
-0.00176558
-0.00179982
-0.00182758
-0.00184609
-0.00185349
-0.0018496
-0.00183601
-0.00157245
-0.00155999
-0.00155242
-0.00155201
-0.00155761
-0.00156895
-0.0015859
-0.00160805
-0.00163458
-0.00166415
-0.00169491
-0.00172455
-0.00175049
-0.00177016
-0.00178144
-0.00178305
-0.00177487
-0.00175801
-0.00155186
-0.00154401
-0.00153942
-0.00153994
-0.00154497
-0.00155435
-0.00156799
-0.00158552
-0.00160623
-0.00162892
-0.00165197
-0.00167343
-0.00169111
-0.00170294
-0.00170722
-0.00170294
-0.00168978
-0.0016683
-0.00152029
-0.0015188
-0.00151866
-0.00152063
-0.00152492
-0.00153175
-0.00154117
-0.00155299
-0.00156666
-0.00158123
-0.0015954
-0.00160755
-0.00161592
-0.00161878
-0.00161471
-0.00160276
-0.00158238
-0.00155361
-0.00147892
-0.00148497
-0.00149005
-0.00149346
-0.00149636
-0.00149952
-0.00150326
-0.0015076
-0.00151225
-0.00151659
-0.00151968
-0.0015203
-0.00151706
-0.00150857
-0.00149359
-0.00147113
-0.00144034
-0.00140109
-0.00144811
-0.00146014
-0.00146914
-0.00147326
-0.00147434
-0.00147344
-0.00147094
-0.00146697
-0.00146142
-0.00145391
-0.00144382
-0.00143034
-0.00141251
-0.00138937
-0.00136011
-0.00132403
-0.00128039
-0.00122873
-0.00143309
-0.00144812
-0.00145892
-0.00146316
-0.00146295
-0.00145926
-0.00145242
-0.00144253
-0.00142955
-0.00141321
-0.00139309
-0.00136865
-0.00133924
-0.00130422
-0.00126307
-0.00121538
-0.00116069
-0.0010987
-0.00142884
-0.00144495
-0.00145636
-0.00146065
-0.00145975
-0.00145433
-0.00144454
-0.00143037
-0.00141175
-0.00138845
-0.00136017
-0.00132654
-0.00128716
-0.00124167
-0.00118983
-0.00113151
-0.00106656
-0.000994912
-0.00143174
-0.00144765
-0.00145906
-0.00146365
-0.0014628
-0.00145671
-0.00144532
-0.00142849
-0.00140604
-0.00137774
-0.00134334
-0.00130258
-0.00125525
-0.00120118
-0.00114038
-0.00107296
-0.000999096
-0.000919007
-0.00143842
-0.0014535
-0.00146483
-0.00147016
-0.00147005
-0.00146424
-0.00145243
-0.00143431
-0.00140963
-0.00137809
-0.00133944
-0.0012935
-0.00124013
-0.00117934
-0.0011113
-0.00103632
-0.000954852
-0.000867419
-0.0014463
-0.00146045
-0.00147202
-0.0014786
-0.00147983
-0.00147503
-0.00146369
-0.00144538
-0.00141971
-0.00138635
-0.00134501
-0.00129549
-0.00123775
-0.00117186
-0.00109811
-0.00101695
-0.000929052
-0.000835223
-0.00145363
-0.00146721
-0.00147957
-0.00148788
-0.00149089
-0.00148762
-0.00147737
-0.00145962
-0.0014339
-0.00139978
-0.00135693
-0.00130513
-0.00124433
-0.00117467
-0.00109648
-0.00101032
-0.000916983
-0.000817545
-0.00145944
-0.00147309
-0.00148689
-0.00149733
-0.00150243
-0.001501
-0.00149225
-0.00147558
-0.00145043
-0.00141632
-0.00137284
-0.00131973
-0.0012569
-0.00118449
-0.00110288
-0.00101266
-0.000914715
-0.000810299
-0.00146324
-0.00147786
-0.00149381
-0.00150672
-0.00151412
-0.00151473
-0.00150775
-0.0014925
-0.00146839
-0.00143485
-0.00139139
-0.00133768
-0.0012736
-0.00119924
-0.00111497
-0.00102142
-0.000919497
-0.000810558
-0.00146492
-0.00148156
-0.00150026
-0.00151586
-0.00152568
-0.00152845
-0.00152338
-0.00150979
-0.00148703
-0.00145445
-0.00141149
-0.00135774
-0.00129299
-0.00121729
-0.00113097
-0.00103466
-0.000929266
-0.000816181
-0.00146499
-0.00148403
-0.00150526
-0.00152314
-0.00153495
-0.0015395
-0.00153603
-0.00152388
-0.00150234
-0.00147072
-0.00142838
-0.00137483
-0.0013098
-0.00123328
-0.00114558
-0.00104729
-0.000939322
-0.000823065
0.000446884
0.000454856
0.000455004
0.000441908
0.000415594
0.000376957
0.000326909
0.000266434
0.000196562
0.000118306
3.25703e-05
-5.98525e-05
-0.000158287
-0.000262166
-0.000371005
-0.000484375
-0.000601865
-0.000723044
-0.000847429
-0.000974442
-0.00110338
-0.00123338
-0.00136341
-0.0014922
-0.0016183
-0.00174
-0.00185536
-0.00196225
-0.00205829
-0.00214092
-0.00220746
-0.00225509
-0.00228095
-0.00228219
-0.00225606
-0.00219997
-0.00211158
-0.00198892
-0.00183043
-0.0016351
-0.00140252
-0.00113295
-0.000827384
-0.000487586
-0.00011607
0.000283974
0.000708395
0.00115254
0.0016111
0.00207827
0.00254786
0.00301345
0.00346848
0.00390646
0.00432105
0.00470623
0.00505638
0.0053664
0.00563176
0.0058486
0.00601372
0.00612464
0.00617958
0.00617746
0.00611794
0.00600128
0.00582846
0.00560114
0.00532169
0.00499312
0.00461919
0.00420433
0.00375371
0.00327322
0.00276945
0.00224961
0.00172145
0.00119314
0.000673035
0.000169421
-0.000309068
-0.000755332
-0.00116251
-0.00152486
-0.00183799
-0.00209906
-0.00230684
-0.00246175
-0.00256582
-0.00262251
-0.00263645
-0.00261319
-0.00255882
-0.00247965
-0.00238192
-0.00227155
-0.00215391
-0.00203375
-0.00191512
-0.00180138
-0.0016952
-0.00159859
-0.00151288
-0.00143878
-0.00137633
-0.00132501
-0.00128377
-0.00125119
-0.00122559
-0.00120522
-0.00118836
-0.00117346
-0.00115919
-0.00114452
-0.00112868
-0.00111119
-0.00109184
-0.00107059
-0.0010476
-0.00102317
-0.000997668
-0.000971555
-0.000945288
-0.000919327
-0.000894101
-0.000869988
-0.000847302
-0.00082628
-0.000807085
-0.000789803
-0.000774451
-0.000760983
-0.0007493
-0.000739265
-0.000730709
-0.000723444
-0.000717273
-0.000711998
-0.000707424
-0.000703369
-0.000699664
-0.000696158
-0.000692715
-0.000689219
-0.000685572
-0.000681691
-0.000677511
-0.000672978
-0.000668053
-0.000662716
-0.000656926
-0.00065069
-0.000644001
-0.00063686
-0.000629275
-0.000621256
-0.000612816
-0.000603972
-0.000594738
-0.000585132
-0.000575168
-0.000564861
-0.00055422
-0.000543251
-0.000531954
-0.000520323
-0.000508343
-0.000495994
-0.000483246
-0.000470063
-0.00045641
-0.000442232
-0.000427509
-0.000412216
-0.000396347
-0.000379935
-0.000363059
-0.000345985
-0.000330198
-0.000308493
0.00046
0.000467026
0.000466605
0.000454112
0.000430137
0.000395725
0.000351667
0.000298704
0.000237595
0.000169058
9.37625e-05
1.22883e-05
-7.48702e-05
-0.000167292
-0.000264614
-0.000366508
-0.000472656
-0.000582715
-0.000696292
-0.000812906
-0.000931965
-0.00105273
-0.0011743
-0.00129557
-0.00141525
-0.00153181
-0.0016435
-0.00174835
-0.00184415
-0.00192852
-0.00199888
-0.00205252
-0.00208666
-0.00209845
-0.00208514
-0.00204403
-0.0019727
-0.00186897
-0.0017311
-0.00155782
-0.00134843
-0.00110289
-0.000821875
-0.000506831
-0.000159931
0.000215859
0.000616855
0.00103856
0.00147587
0.00192317
0.00237443
0.00282331
0.00326338
0.00368816
0.00409134
0.00446689
0.00480914
0.00511296
0.00537375
0.00558759
0.0057512
0.00586203
0.00591821
0.00591858
0.00586266
0.00575074
0.00558384
0.00536366
0.00509256
0.00477361
0.00441057
0.00400794
0.00357094
0.0031055
0.00261824
0.00211637
0.00160762
0.00110008
0.000602033
0.000121738
-0.000333308
-0.00075548
-0.0011386
-0.00147748
-0.0017683
-0.00200876
-0.00219819
-0.00233753
-0.00242922
-0.002477
-0.00248566
-0.00246071
-0.00240807
-0.00233371
-0.00224344
-0.00214261
-0.00203602
-0.00192781
-0.00182147
-0.00171983
-0.00162512
-0.00153899
-0.00146256
-0.00139637
-0.00134046
-0.00129436
-0.0012572
-0.00122774
-0.00120455
-0.00118609
-0.00117086
-0.00115746
-0.00114471
-0.00113163
-0.00111751
-0.00110187
-0.00108444
-0.00106518
-0.00104417
-0.00102166
-0.000997986
-0.000973538
-0.000948753
-0.000924063
-0.000899882
-0.000876582
-0.000854478
-0.000833821
-0.000814789
-0.000797491
-0.000781968
-0.0007682
-0.000756116
-0.000745603
-0.000736517
-0.000728692
-0.000721948
-0.000716103
-0.000710977
-0.000706396
-0.0007022
-0.00069824
-0.000694386
-0.000690521
-0.000686547
-0.000682382
-0.000677955
-0.000673213
-0.000668113
-0.000662618
-0.000656718
-0.000650391
-0.00064363
-0.000636436
-0.000628814
-0.00062077
-0.000612317
-0.000603467
-0.000594235
-0.000584635
-0.000574681
-0.000564386
-0.000553758
-0.000542802
-0.00053152
-0.000519906
-0.000507946
-0.000495624
-0.000482912
-0.000469781
-0.000456198
-0.000442132
-0.000427555
-0.00041245
-0.000396832
-0.000380752
-0.000364319
-0.000347832
-0.000332749
-0.00031201
0.000530361
0.000531577
0.000525586
0.000509412
0.000483855
0.000449889
0.000408181
0.000359287
0.000303738
0.000242016
0.000174534
0.000101633
2.3584e-05
-5.94021e-05
-0.000147157
-0.000239538
-0.000336401
-0.000437575
-0.000542837
-0.000651878
-0.00076428
-0.000879482
-0.000996757
-0.00111518
-0.00123363
-0.00135074
-0.00146488
-0.00157422
-0.00167662
-0.00176974
-0.00185102
-0.00191768
-0.00196684
-0.00199553
-0.00200074
-0.0019796
-0.00192935
-0.00184754
-0.0017321
-0.00158142
-0.0013945
-0.001171
-0.000911324
-0.000616662
-0.000288888
6.90687e-05
0.00045361
0.000860323
0.00128413
0.0017194
0.00216004
0.00259969
0.00303179
0.00344979
0.00384731
0.00421821
0.00455676
0.00485775
0.00511656
0.0053292
0.0054924
0.00560358
0.00566089
0.00566316
0.00560988
0.00550134
0.00533858
0.00512335
0.00485801
0.00454566
0.00419008
0.00379584
0.00336822
0.00291324
0.0024376
0.00194864
0.00145418
0.000962422
0.00048168
2.0188e-05
-0.000414283
-0.000814597
-0.00117469
-0.00148977
-0.00175647
-0.00197307
-0.00213957
-0.0022576
-0.00233029
-0.00236202
-0.00235806
-0.00232426
-0.00226667
-0.0021912
-0.00210334
-0.00200801
-0.0019094
-0.001811
-0.00171561
-0.00162542
-0.00154208
-0.00146677
-0.00140026
-0.00134289
-0.00129459
-0.00125489
-0.00122302
-0.0011979
-0.00117826
-0.00116277
-0.00115011
-0.00113905
-0.00112851
-0.00111761
-0.00110567
-0.00109223
-0.00107701
-0.00105992
-0.00104104
-0.00102055
-0.000998752
-0.000976005
-0.000952714
-0.000929295
-0.00090615
-0.000883649
-0.000862116
-0.000841811
-0.000822932
-0.000805609
-0.000789908
-0.000775833
-0.000763341
-0.000752342
-0.000742716
-0.000734317
-0.000726986
-0.000720556
-0.000714858
-0.00070973
-0.000705019
-0.000700582
-0.000696291
-0.000692033
-0.000687709
-0.000683235
-0.00067854
-0.000673567
-0.000668272
-0.000662617
-0.000656581
-0.000650146
-0.0006433
-0.000636041
-0.000628371
-0.000620294
-0.00061182
-0.000602959
-0.000593723
-0.000584126
-0.000574179
-0.000563894
-0.000553278
-0.000542337
-0.000531072
-0.000519477
-0.000507544
-0.000495255
-0.000482591
-0.000469525
-0.000456031
-0.000442088
-0.000427674
-0.000412786
-0.00039745
-0.000381734
-0.000365768
-0.000349849
-0.000335579
-0.000315367
0.000656877
0.000647078
0.000630253
0.000606235
0.000575483
0.000538486
0.000495673
0.000447409
0.000393987
0.000335632
0.000272492
0.000204643
0.000132092
5.47897e-05
-2.73516e-05
-0.000114441
-0.000206584
-0.000303856
-0.000406272
-0.000513757
-0.000626116
-0.000742995
-0.000863858
-0.000987945
-0.00111425
-0.00124149
-0.00136809
-0.00149217
-0.00161153
-0.00172366
-0.00182578
-0.00191485
-0.00198763
-0.00204078
-0.00207088
-0.00207461
-0.0020488
-0.00199056
-0.00189743
-0.00176747
-0.00159939
-0.00139263
-0.00114745
-0.000864855
-0.000546875
-0.000196425
0.000182688
0.00058587
0.00100782
0.00144266
0.00188402
0.00232526
0.00275959
0.00318022
0.00358054
0.00395427
0.00429557
0.00459914
0.00486032
0.00507515
0.00524038
0.0053535
0.00541273
0.00541697
0.00536585
0.00525966
0.00509941
0.00488685
0.00462435
0.00431498
0.00396255
0.00357161
0.00314749
0.00269628
0.00222484
0.00174067
0.00125185
0.000766842
0.000294291
-0.000157272
-0.000579714
-0.000965658
-0.00130888
-0.00160463
-0.00184974
-0.00204284
-0.00218448
-0.00227705
-0.00232454
-0.00233227
-0.00230646
-0.00225377
-0.00218091
-0.00209417
-0.00199917
-0.00190066
-0.00180244
-0.00170743
-0.00161774
-0.00153484
-0.00145972
-0.00139299
-0.00133495
-0.00128561
-0.00124469
-0.00121162
-0.00118558
-0.00116555
-0.00115034
-0.00113871
-0.00112945
-0.00112142
-0.00111363
-0.00110528
-0.00109573
-0.00108454
-0.00107145
-0.00105636
-0.00103933
-0.00102054
-0.00100026
-0.000978853
-0.000956709
-0.000934241
-0.000911852
-0.00088992
-0.000868777
-0.000848697
-0.000829895
-0.000812516
-0.000796646
-0.000782309
-0.000769478
-0.000758083
-0.000748019
-0.000739158
-0.000731351
-0.000724445
-0.00071828
-0.000712704
-0.000707567
-0.000702732
-0.000698075
-0.000693483
-0.000688858
-0.000684116
-0.000679186
-0.000674009
-0.000668538
-0.000662735
-0.000656574
-0.000650035
-0.000643107
-0.000635782
-0.000628061
-0.000619947
-0.000611446
-0.000602568
-0.000593322
-0.000583721
-0.000573775
-0.000563495
-0.000552887
-0.000541958
-0.000530708
-0.000519133
-0.000507227
-0.000494975
-0.00048236
-0.000469363
-0.000455961
-0.000442138
-0.000427881
-0.000413196
-0.000398114
-0.000382715
-0.000367132
-0.000351638
-0.000337788
-0.000318249
0.000822883
0.000798427
0.000766915
0.000731984
0.000693472
0.00065113
0.000604989
0.000555105
0.000501452
0.000443924
0.000382344
0.000316465
0.000245977
0.000170522
8.97012e-05
3.1043e-06
-8.96723e-05
-0.000188994
-0.000295156
-0.000408344
-0.000528601
-0.000655778
-0.000789497
-0.000929107
-0.00107364
-0.0012218
-0.00137187
-0.0015218
-0.00166909
-0.00181088
-0.00194395
-0.00206476
-0.00216954
-0.00225437
-0.00231527
-0.00234836
-0.00234996
-0.00231673
-0.00224582
-0.00213501
-0.00198279
-0.00178853
-0.00155241
-0.00127556
-0.0009602
-0.000609562
-0.000227752
0.000180286
0.000608862
0.00105168
0.00150197
0.00195269
0.00239669
0.00282686
0.00323633
0.00361861
0.00396771
0.00427828
0.00454564
0.00476586
0.00493577
0.00505298
0.00511582
0.00512332
0.00507518
0.00497177
0.0048141
0.00460393
0.00434361
0.00403615
0.00368527
0.00329549
0.00287212
0.00242131
0.00194999
0.0014659
0.000977396
0.000493339
2.2836e-05
-0.000425049
-0.000841633
-0.00121895
-0.00155025
-0.00183043
-0.00205616
-0.00222617
-0.00234134
-0.0024047
-0.00242117
-0.00239719
-0.00234026
-0.00225834
-0.00215928
-0.00205031
-0.00193766
-0.00182632
-0.00171998
-0.00162111
-0.00153118
-0.00145092
-0.0013805
-0.00131984
-0.00126859
-0.00122631
-0.00119237
-0.00116594
-0.00114607
-0.00113167
-0.00112153
-0.00111443
-0.0011092
-0.00110477
-0.00110019
-0.00109472
-0.00108775
-0.00107888
-0.00106787
-0.00105463
-0.00103924
-0.00102187
-0.00100281
-0.00098243
-0.00096112
-0.000939308
-0.000917411
-0.00089582
-0.000874881
-0.000854885
-0.00083606
-0.000818568
-0.000802507
-0.000787917
-0.000774782
-0.000763046
-0.000752614
-0.000743367
-0.000735168
-0.00072787
-0.000721322
-0.000715374
-0.000709883
-0.000704717
-0.00069975
-0.000694875
-0.000689992
-0.000685019
-0.000679883
-0.000674524
-0.000668894
-0.000662955
-0.000656678
-0.000650042
-0.000643032
-0.000635641
-0.000627868
-0.000619712
-0.00061118
-0.000602279
-0.000593018
-0.000583408
-0.000573458
-0.000563178
-0.000552575
-0.000541654
-0.000530418
-0.000518864
-0.000506986
-0.000494773
-0.000482211
-0.000469285
-0.000455976
-0.000442273
-0.000428169
-0.000413675
-0.000398827
-0.000383704
-0.000368436
-0.000353263
-0.000339536
-0.000320941
0.00101043
0.000969395
0.000921183
0.000873692
0.000826016
0.000776937
0.000725954
0.000672707
0.000616755
0.000557579
0.000494603
0.000427199
0.00035469
0.000276362
0.000191473
9.92757e-05
-9.55589e-07
-0.000109892
-0.000228109
-0.000356045
-0.000493941
-0.000641799
-0.000799314
-0.000965828
-0.00114028
-0.00132115
-0.00150645
-0.0016937
-0.00187992
-0.00206167
-0.00223508
-0.00239594
-0.00253979
-0.00266202
-0.00275802
-0.00282331
-0.00285371
-0.00284546
-0.00279542
-0.00270116
-0.00256112
-0.00237465
-0.00214204
-0.00186476
-0.00154541
-0.00118757
-0.000795769
-0.000375457
6.71699e-05
0.000525289
0.000991633
0.00145867
0.00191881
0.00236456
0.00278874
0.00318464
0.00354611
0.00386772
0.00414481
0.00437353
0.00455082
0.00467445
0.00474292
0.00475542
0.00471176
0.00461238
0.00445835
0.00425138
0.00399378
0.00368844
0.00333898
0.00294979
0.00252609
0.00207402
0.00160059
0.0011137
0.000622008
0.000134816
-0.000338216
-0.000787354
-0.00120317
-0.00157695
-0.00190109
-0.00216974
-0.00237905
-0.0025275
-0.00261599
-0.00264795
-0.00262909
-0.00256702
-0.00247071
-0.00234975
-0.00221363
-0.0020711
-0.00192954
-0.00179471
-0.00167057
-0.00155945
-0.00146229
-0.00137905
-0.00130904
-0.00125127
-0.00120464
-0.00116802
-0.00114024
-0.00112013
-0.00110642
-0.00109787
-0.00109315
-0.00109101
-0.00109023
-0.00108977
-0.00108872
-0.00108633
-0.00108207
-0.00107553
-0.00106653
-0.00105499
-0.00104102
-0.00102481
-0.00100669
-0.000987025
-0.000966251
-0.000944813
-0.000923151
-0.000901675
-0.000880752
-0.000860689
-0.000841729
-0.000824047
-0.000807753
-0.000792894
-0.000779466
-0.000767417
-0.00075666
-0.000747083
-0.000738552
-0.000730925
-0.000724056
-0.000717798
-0.000712012
-0.000706565
-0.000701338
-0.00069622
-0.000691116
-0.00068594
-0.000680622
-0.000675101
-0.000669328
-0.000663264
-0.000656877
-0.000650148
-0.000643059
-0.000635602
-0.000627774
-0.000619574
-0.000611006
-0.000602078
-0.000592797
-0.000583173
-0.000573214
-0.00056293
-0.000552329
-0.000541415
-0.000530191
-0.000518657
-0.000506808
-0.000494637
-0.000482131
-0.000469278
-0.000456066
-0.000442485
-0.000428532
-0.000414222
-0.000399592
-0.000384718
-0.00036972
-0.000354802
-0.000341037
-0.000323579
0.00119986
0.00114176
0.0010764
0.00101597
0.000958688
0.000902246
0.000845484
0.000787517
0.000727391
0.00066409
0.000596574
0.000523779
0.000444619
0.000357991
0.000262788
0.000157918
4.23362e-05
-8.49143e-05
-0.000224653
-0.000377504
-0.000543828
-0.00072366
-0.00091663
-0.00112191
-0.00133815
-0.00156343
-0.00179525
-0.00203051
-0.00226554
-0.00249614
-0.00271767
-0.00292513
-0.00311329
-0.00327682
-0.00341048
-0.00350924
-0.00356847
-0.0035841
-0.00355279
-0.00347202
-0.00334023
-0.00315692
-0.00292269
-0.0026394
-0.00231003
-0.00193863
-0.00153028
-0.00109098
-0.00062754
-0.000147378
0.000341647
0.000831446
0.00131391
0.00178112
0.00222553
0.00264015
0.00301866
0.00335557
0.00364623
0.00388686
0.00407459
0.00420736
0.00428388
0.00430354
0.00426631
0.00417276
0.00402397
0.00382161
0.00356791
0.00326562
0.0029182
0.00252985
0.00210568
0.00165172
0.00117501
0.00068359
0.000186401
-0.000306834
-0.000785858
-0.0012402
-0.00165959
-0.00203436
-0.00235592
-0.00261744
-0.00281416
-0.0029439
-0.00300727
-0.00300773
-0.00295152
-0.00284725
-0.00270535
-0.00253722
-0.00235437
-0.00216754
-0.00198587
-0.00181647
-0.00166413
-0.0015314
-0.00141897
-0.00132613
-0.00125128
-0.00119245
-0.00114753
-0.00111455
-0.00109164
-0.00107705
-0.00106912
-0.00106627
-0.00106702
-0.00106996
-0.00107381
-0.00107748
-0.00108006
-0.00108083
-0.00107925
-0.00107497
-0.00106782
-0.00105777
-0.00104495
-0.00102961
-0.0010121
-0.000992832
-0.000972279
-0.000950919
-0.000929223
-0.000907627
-0.000886522
-0.000866232
-0.000847015
-0.000829056
-0.000812474
-0.000797322
-0.000783598
-0.000771255
-0.000760207
-0.000750343
-0.000741532
-0.000733632
-0.000726498
-0.000719987
-0.000713958
-0.000708281
-0.000702837
-0.000697516
-0.000692224
-0.000686875
-0.000681399
-0.000675735
-0.000669833
-0.000663653
-0.000657166
-0.000650347
-0.000643182
-0.000635659
-0.000627774
-0.000619528
-0.000610921
-0.000601962
-0.000592656
-0.000583012
-0.000573041
-0.000562749
-0.000552146
-0.000541236
-0.000530024
-0.00051851
-0.000506691
-0.000494562
-0.000482114
-0.000469338
-0.000456224
-0.000442766
-0.000428963
-0.000414831
-0.000400405
-0.000385756
-0.000370992
-0.000356285
-0.000342393
-0.000326174
0.00137062
0.00129628
0.00121459
0.00114184
0.00107527
0.00101139
0.000948286
0.000884455
0.00081835
0.000748394
0.000673025
0.000590705
0.000499913
0.000399142
0.000286919
0.000161824
2.25282e-05
-0.000132157
-0.000303215
-0.000491354
-0.000696924
-0.000919838
-0.00115949
-0.00141469
-0.00168359
-0.00196369
-0.00225178
-0.00254398
-0.00283579
-0.00312216
-0.00339758
-0.00365624
-0.00389214
-0.00409929
-0.00427184
-0.00440432
-0.00449173
-0.00452978
-0.00451498
-0.00444481
-0.0043178
-0.00413368
-0.00389343
-0.00359929
-0.00325466
-0.00286412
-0.00243333
-0.00196894
-0.00147842
-0.000969858
-0.000451778
6.7096e-05
0.000578071
0.00107271
0.00154304
0.00198176
0.00238233
0.00273915
0.00304759
0.00330397
0.00350559
0.00365062
0.003738
0.00376737
0.0037389
0.00365328
0.00351166
0.00331564
0.00306738
0.00276947
0.00242515
0.00203843
0.00161421
0.0011584
0.000678028
0.000181213
-0.000322842
-0.000824
-0.00131142
-0.00177388
-0.00220019
-0.00257968
-0.0029027
-0.00316123
-0.00334939
-0.00346405
-0.00350514
-0.00347582
-0.00338247
-0.00323442
-0.00304335
-0.00282246
-0.00258542
-0.00234531
-0.00211356
-0.00189918
-0.00170838
-0.00154448
-0.00140826
-0.00129857
-0.00121297
-0.00114842
-0.0011017
-0.0010698
-0.00104994
-0.00103966
-0.00103669
-0.00103906
-0.00104497
-0.00105282
-0.00106121
-0.00106894
-0.00107509
-0.0010789
-0.00107985
-0.00107762
-0.00107207
-0.00106322
-0.00105123
-0.00103641
-0.00101916
-0.000999954
-0.000979294
-0.000957708
-0.000935704
-0.000913751
-0.000892263
-0.000871585
-0.000851987
-0.000833663
-0.000816736
-0.000801261
-0.000787236
-0.000774612
-0.000763301
-0.000753188
-0.000744143
-0.00073602
-0.000728674
-0.000721959
-0.000715736
-0.000709875
-0.000704255
-0.000698769
-0.00069332
-0.000687826
-0.000682214
-0.000676425
-0.000670408
-0.000664125
-0.000657543
-0.00065064
-0.000643399
-0.000635811
-0.000627869
-0.000619572
-0.000610924
-0.000601928
-0.000592593
-0.000582926
-0.000572937
-0.000562634
-0.000552025
-0.000541117
-0.000529914
-0.000518419
-0.00050663
-0.000494545
-0.000482157
-0.000469459
-0.000456444
-0.000443107
-0.000429452
-0.00041549
-0.000401256
-0.000386812
-0.000372252
-0.000357719
-0.00034365
-0.000328698
0.0015024
0.00141372
0.00131762
0.00123394
0.00115892
0.00108788
0.00101808
0.00094734
0.000873473
0.000794293
0.000707694
0.000611643
0.000504173
0.000383385
0.000247462
9.46971e-05
-7.64614e-05
-0.000267347
-0.000479
-0.000712079
-0.000966769
-0.0012427
-0.00153883
-0.00185345
-0.00218404
-0.00252735
-0.00287933
-0.00323523
-0.00358964
-0.00393663
-0.00426984
-0.00458266
-0.0048684
-0.00512045
-0.00533247
-0.00549856
-0.00561344
-0.00567264
-0.00567259
-0.00561078
-0.00548584
-0.00529782
-0.00504799
-0.00473894
-0.00437454
-0.00395993
-0.0035014
-0.00300628
-0.00248273
-0.00193961
-0.00138618
-0.000831886
-0.000286087
0.000242177
0.000744429
0.00121296
0.00164097
0.00202273
0.00235356
0.00262991
0.00284925
0.00300997
0.00311133
0.00315321
0.00313605
0.00306068
0.00292832
0.00274057
0.00249946
0.00220743
0.00186751
0.00148345
0.00105994
0.000602752
0.000118827
-0.000383632
-0.000895197
-0.00140534
-0.00190264
-0.00237514
-0.00281074
-0.00319773
-0.00352532
-0.00378429
-0.00396762
-0.0040709
-0.00409314
-0.00403691
-0.00390837
-0.00371718
-0.00347598
-0.00319952
-0.00290361
-0.0026038
-0.00231412
-0.00204601
-0.00180762
-0.00160359
-0.00143528
-0.00130141
-0.00119887
-0.00112357
-0.00107113
-0.0010373
-0.00101827
-0.00101066
-0.00101149
-0.00101822
-0.0010287
-0.00104101
-0.00105356
-0.00106506
-0.00107448
-0.00108105
-0.00108425
-0.00108375
-0.00107946
-0.00107144
-0.00105992
-0.00104525
-0.0010279
-0.00100839
-0.000987297
-0.000965187
-0.000942612
-0.000920076
-0.000898018
-0.000876802
-0.000856708
-0.000837938
-0.000820614
-0.000804789
-0.000790457
-0.000777563
-0.000766013
-0.000755687
-0.000746447
-0.000738145
-0.000730632
-0.000723759
-0.000717386
-0.00071138
-0.000705621
-0.000700001
-0.000694425
-0.000688808
-0.00068308
-0.000677181
-0.000671062
-0.000664682
-0.000658012
-0.000651028
-0.000643714
-0.000636058
-0.000628057
-0.000619707
-0.000611012
-0.000601977
-0.000592608
-0.000582913
-0.000572902
-0.000562583
-0.000551965
-0.000541055
-0.000529859
-0.000518381
-0.000506622
-0.000494579
-0.000482251
-0.000469631
-0.000456715
-0.000443499
-0.000429986
-0.000416188
-0.000402132
-0.000387873
-0.000373489
-0.000359102
-0.000344831
-0.000331113
0.00157645
0.00147626
0.00136855
0.00127592
0.00119367
0.00111595
0.00103922
0.000960609
0.000877254
0.000786365
0.000685286
0.000571494
0.000442597
0.000296331
0.00013058
-5.65898e-05
-0.000266869
-0.000501634
-0.000761859
-0.00104802
-0.00135998
-0.00169692
-0.00205724
-0.00243854
-0.00283753
-0.00325009
-0.0036713
-0.00409548
-0.00451634
-0.00492706
-0.00532051
-0.00568935
-0.00602625
-0.00632404
-0.00657593
-0.00677567
-0.0069177
-0.00699737
-0.00701101
-0.00695609
-0.00683137
-0.00663716
-0.00637495
-0.00604767
-0.00565968
-0.00521667
-0.00472557
-0.00419443
-0.0036322
-0.00304854
-0.00245353
-0.00185743
-0.00127037
-0.000702097
-0.000161686
0.000342668
0.000803832
0.00121586
0.00157403
0.00187485
0.00211598
0.0022961
0.00241474
0.0024721
0.00246889
0.00240615
0.00228523
0.00210771
0.00187551
0.00159093
0.00125676
0.00087651
0.000454639
-3.26297e-06
-0.000490318
-0.000998269
-0.00151748
-0.00203705
-0.002545
-0.00302863
-0.00347498
-0.00387129
-0.00420566
-0.00446765
-0.00464911
-0.00474429
-0.00475111
-0.0046713
-0.00451055
-0.0042785
-0.00398835
-0.00365611
-0.00329947
-0.00293639
-0.00258364
-0.00225538
-0.00196217
-0.00171046
-0.00150267
-0.00133779
-0.00121231
-0.00112121
-0.00105892
-0.00101993
-0.000999204
-0.000992326
-0.000995473
-0.00100544
-0.00101957
-0.00103562
-0.00105176
-0.0010665
-0.00107873
-0.00108762
-0.00109262
-0.00109344
-0.00108999
-0.00108239
-0.00107093
-0.00105602
-0.00103819
-0.00101804
-0.0009962
-0.00097329
-0.000949906
-0.000926586
-0.000903795
-0.000881913
-0.00086123
-0.000841948
-0.000824188
-0.000807995
-0.000793356
-0.000780205
-0.000768439
-0.00075793
-0.000748532
-0.00074009
-0.000732448
-0.000725455
-0.000718966
-0.000712849
-0.000706981
-0.000701253
-0.00069557
-0.000689849
-0.00068402
-0.000678022
-0.000671808
-0.000665338
-0.000658582
-0.000651517
-0.000644128
-0.000636404
-0.000628339
-0.000619932
-0.000611186
-0.000602106
-0.000592697
-0.000582969
-0.000572931
-0.000562592
-0.000551961
-0.000541046
-0.000529854
-0.000518391
-0.000506659
-0.000494659
-0.000482389
-0.000469846
-0.000457026
-0.000443927
-0.00043055
-0.000416906
-0.000403016
-0.000388922
-0.000374691
-0.000360427
-0.000345949
-0.000333374
0.00157722
0.00146909
0.00135325
0.00125408
0.00116603
0.00108227
0.000998508
0.000911177
0.000816785
0.000711957
0.000593515
0.000458481
0.000304073
0.000127709
-7.29675e-05
-0.000300039
-0.000555248
-0.00083991
-0.00115482
-0.00150013
-0.00187528
-0.00227889
-0.00270868
-0.00316147
-0.00363316
-0.00411873
-0.00461236
-0.00510751
-0.00559702
-0.00607329
-0.00652844
-0.00695446
-0.00734344
-0.00768771
-0.00798002
-0.00821376
-0.00838309
-0.00848313
-0.00851007
-0.00846131
-0.00833572
-0.00813374
-0.00785702
-0.00750886
-0.00709406
-0.00661887
-0.00609089
-0.00551891
-0.0049127
-0.00428279
-0.00364019
-0.00299605
-0.00236137
-0.00174671
-0.00116185
-0.000615564
-0.000115422
0.000332356
0.000722945
0.0010529
0.00132005
0.00152333
0.00166262
0.00173846
0.00175188
0.00170416
0.00159678
0.00143139
0.00120981
0.000934179
0.000607086
0.000231795
-0.00018747
-0.000645295
-0.00113488
-0.00164791
-0.00217455
-0.00270352
-0.00322231
-0.00371752
-0.00417531
-0.00458195
-0.00492445
-0.00519118