/*--------------------------------*- C++ -*----------------------------------*\
  =========                 |
  \\      /  F ield         | OpenFOAM: The Open Source CFD Toolbox
   \\    /   O peration     | Website:  https://openfoam.org
    \\  /    A nd           | Version:  8
     \\/     M anipulation  |
\*---------------------------------------------------------------------------*/
FoamFile
{
    version     2.0;
    format      ascii;
    class       surfaceScalarField;
    location    "0.94";
    object      phi;
}
// * * * * * * * * * * * * * * * * * * * * * * * * * * * * * * * * * * * * * //

dimensions      [0 3 -1 0 0 0 0];

internalField   nonuniform List<scalar> 
24170
(
-1.92519e-12
1.92519e-12
3.64596e-12
-5.57116e-12
1.58112e-11
-1.21652e-11
3.31268e-11
-1.73156e-11
5.45035e-11
-2.13767e-11
7.92455e-11
-2.4742e-11
1.06886e-10
-2.764e-11
1.37103e-10
-3.02175e-11
1.69687e-10
-3.2584e-11
2.04537e-10
-3.48505e-11
2.41679e-10
-3.71412e-11
2.81252e-10
-3.95738e-11
3.23405e-10
-4.21526e-11
3.677e-10
-4.42945e-11
4.10042e-10
-4.23424e-11
4.2658e-10
-1.65378e-11
3.36054e-10
9.05258e-11
1.18262e-09
-8.46568e-10
-1.98646e-12
3.91165e-12
1.69081e-11
-2.44657e-11
5.5831e-11
-5.10881e-11
1.1052e-10
-7.20043e-11
1.77779e-10
-8.86363e-11
2.55371e-10
-1.02334e-10
3.417e-10
-1.13969e-10
4.35545e-10
-1.24063e-10
5.35916e-10
-1.32955e-10
6.41966e-10
-1.40901e-10
7.5286e-10
-1.48035e-10
8.67391e-10
-1.54105e-10
9.82863e-10
-1.57625e-10
1.09172e-09
-1.53156e-10
1.17084e-09
-1.21453e-10
1.14704e-09
7.2606e-12
7.59632e-10
4.77932e-10
2.61507e-09
-6.72814e-10
1.47454e-12
2.43711e-12
3.75019e-11
-6.0493e-11
1.07599e-10
-1.21185e-10
2.04912e-10
-1.69317e-10
3.24062e-10
-2.07786e-10
4.61043e-10
-2.39315e-10
6.12833e-10
-2.65759e-10
7.76925e-10
-2.88154e-10
9.51029e-10
-3.07059e-10
1.13279e-09
-3.22662e-10
1.3193e-09
-3.34545e-10
1.50597e-09
-3.40778e-10
1.68376e-09
-3.35413e-10
1.83215e-09
-3.01549e-10
1.90134e-09
-1.90639e-10
1.76786e-09
1.40741e-10
1.12261e-09
1.12318e-09
4.10113e-09
-3.6345e-10
8.34438e-12
-5.90727e-12
6.60321e-11
-1.18181e-10
1.72106e-10
-2.27259e-10
3.17447e-10
-3.14659e-10
4.94422e-10
-3.8476e-10
6.97048e-10
-4.4194e-10
9.20527e-10
-4.89239e-10
1.1606e-09
-5.28227e-10
1.41303e-09
-5.59485e-10
1.673e-09
-5.82635e-10
1.93413e-09
-5.95676e-10
2.18633e-09
-5.9298e-10
2.41121e-09
-5.6029e-10
2.57211e-09
-4.62453e-10
2.59356e-09
-2.12081e-10
2.3253e-09
4.08996e-10
1.50848e-09
1.94e-09
5.55597e-09
5.36427e-11
1.87262e-11
-2.46335e-11
1.02899e-10
-2.02353e-10
2.49984e-10
-3.74345e-10
4.48704e-10
-5.13378e-10
6.89109e-10
-6.25166e-10
9.63023e-10
-7.15854e-10
1.2635e-09
-7.89712e-10
1.58398e-09
-8.48708e-10
1.91753e-09
-8.93039e-10
2.25587e-09
-9.20971e-10
2.5877e-09
-9.27512e-10
2.89567e-09
-9.00949e-10
3.15036e-09
-8.14985e-10
3.29943e-09
-6.1152e-10
3.25022e-09
-1.62866e-10
2.85368e-09
8.05538e-10
1.93523e-09
2.85845e-09
6.93364e-09
5.57553e-10
3.24975e-11
-5.7131e-11
1.48133e-10
-3.17989e-10
3.41255e-10
-5.67466e-10
5.98369e-10
-7.70492e-10
9.07138e-10
-9.33935e-10
1.25697e-09
-1.06569e-09
1.63837e-09
-1.17111e-09
2.04193e-09
-1.25226e-09
2.45722e-09
-1.30834e-09
2.87149e-09
-1.33524e-09
3.26739e-09
-1.32341e-09
3.61925e-09
-1.25281e-09
3.88674e-09
-1.08248e-09
4.00554e-09
-7.30316e-10
3.87764e-09
-3.49691e-11
3.37669e-09
1.30649e-09
2.41525e-09
3.81989e-09
8.19886e-09
1.15004e-09
4.93835e-11
-1.06515e-10
2.01275e-10
-4.69881e-10
4.45108e-10
-8.11299e-10
7.64922e-10
-1.09031e-09
1.14589e-09
-1.3149e-09
1.57479e-09
-1.49459e-09
2.03919e-09
-1.63552e-09
2.52626e-09
-1.73933e-09
3.02141e-09
-1.80349e-09
3.50658e-09
-1.82041e-09
3.9577e-09
-1.77453e-09
4.34078e-09
-1.63589e-09
4.60651e-09
-1.34821e-09
4.68449e-09
-8.08295e-10
4.48305e-09
1.66468e-10
3.91114e-09
1.8784e-09
2.95605e-09
4.77498e-09
9.33225e-09
1.82265e-09
6.88995e-11
-1.75414e-10
2.61239e-10
-6.6222e-10
5.59646e-10
-1.10971e-09
9.45267e-10
-1.47593e-09
1.40064e-09
-1.77027e-09
1.90972e-09
-2.00367e-09
2.45682e-09
-2.18262e-09
3.02522e-09
-2.30772e-09
3.59562e-09
-2.37389e-09
4.14425e-09
-2.36905e-09
4.64032e-09
-2.27059e-09
5.04265e-09
-2.03823e-09
5.29634e-09
-1.60189e-09
5.33165e-09
-8.43608e-10
5.07252e-09
4.25592e-10
4.46757e-09
2.48336e-09
3.56063e-09
5.68192e-09
1.03202e-08
2.57271e-09
9.03181e-11
-2.65732e-10
3.26182e-10
-8.98084e-10
6.81623e-10
-1.46515e-09
1.13434e-09
-1.92864e-09
1.66407e-09
-2.30001e-09
2.25183e-09
-2.59143e-09
2.87842e-09
-2.80921e-09
3.52297e-09
-2.95227e-09
4.16127e-09
-3.01219e-09
4.7639e-09
-2.97168e-09
5.29414e-09
-2.80083e-09
5.70583e-09
-2.44991e-09
5.94264e-09
-1.8387e-09
5.94185e-09
-8.42824e-10
5.64879e-09
7.18653e-10
5.04978e-09
3.08237e-09
4.22668e-09
6.50502e-09
1.11507e-08
3.39619e-09
1.12632e-10
-3.78364e-10
3.93382e-10
-1.17883e-09
8.06184e-10
-1.87795e-09
1.32472e-09
-2.44718e-09
1.92581e-09
-2.90109e-09
2.58744e-09
-3.25306e-09
3.2869e-09
-3.50867e-09
3.99917e-09
-3.66454e-09
4.69532e-09
-3.70834e-09
5.34099e-09
-3.61736e-09
5.89507e-09
-3.35491e-09
6.30929e-09
-2.86413e-09
6.5303e-09
-2.05971e-09
6.50725e-09
-8.19782e-10
6.20907e-09
1.01684e-09
5.65391e-09
3.63753e-09
4.94571e-09
7.21321e-09
1.18112e-08
4.28516e-09
1.34657e-10
-5.13021e-10
4.59149e-10
-1.50333e-09
9.26643e-10
-2.34544e-09
1.50631e-09
-3.02685e-09
2.17196e-09
-3.56674e-09
2.89869e-09
-3.97978e-09
3.66048e-09
-4.27047e-09
4.42856e-09
-4.43262e-09
5.16997e-09
-4.44975e-09
5.84671e-09
-4.29409e-09
6.41544e-09
-3.92365e-09
6.82897e-09
-3.27766e-09
7.04075e-09
-2.27149e-09
7.01479e-09
-7.93822e-10
6.74276e-09
1.28887e-09
6.26709e-09
4.11321e-09
5.70145e-09
7.77886e-09
1.22875e-08
5.22518e-09
1.29802e-10
-6.42823e-10
4.33934e-10
-1.80746e-09
8.6599e-10
-2.7775e-09
1.39595e-09
-3.55681e-09
1.99935e-09
-4.17014e-09
2.65321e-09
-4.63365e-09
3.33344e-09
-4.9507e-09
4.01343e-09
-5.11261e-09
4.66321e-09
-5.09953e-09
5.24922e-09
-4.8801e-09
5.7351e-09
-4.40953e-09
6.08414e-09
-3.62669e-09
6.26441e-09
-2.45176e-09
6.25774e-09
-7.87146e-10
6.07236e-09
1.47425e-09
5.75682e-09
4.42874e-09
5.4078e-09
8.12787e-09
1.25353e-08
5.16001e-09
1.6301e-10
-8.05833e-10
5.40557e-10
-2.185e-09
1.06925e-09
-3.30619e-09
1.71119e-09
-4.19875e-09
2.43623e-09
-4.89518e-09
3.21629e-09
-5.41371e-09
4.02204e-09
-5.75645e-09
4.82133e-09
-5.91189e-09
5.57865e-09
-5.85685e-09
6.25563e-09
-5.55708e-09
6.8129e-09
-4.9668e-09
7.21406e-09
-4.02785e-09
7.43236e-09
-2.67007e-09
7.46045e-09
-8.15236e-10
7.322e-09
1.6127e-09
7.08159e-09
4.66915e-09
6.84622e-09
8.36325e-09
1.26321e-08
6.74941e-09
1.97301e-10
-1.00313e-09
6.50488e-10
-2.63819e-09
1.27657e-09
-3.93228e-09
2.0287e-09
-4.95088e-09
2.87095e-09
-5.73743e-09
3.77026e-09
-6.31302e-09
4.69249e-09
-6.67868e-09
5.60079e-09
-6.8202e-09
6.45558e-09
-6.71163e-09
7.21594e-09
-6.31744e-09
7.84287e-09
-5.59373e-09
8.30453e-09
-4.48951e-09
8.5839e-09
-2.94943e-09
8.68801e-09
-9.19353e-10
8.65704e-09
1.64367e-09
8.56916e-09
4.75704e-09
8.5362e-09
8.39621e-09
1.24824e-08
8.6859e-09
2.2488e-10
-1.22801e-09
7.3762e-10
-3.15093e-09
1.43765e-09
-4.6323e-09
2.26978e-09
-5.78301e-09
3.19364e-09
-6.6613e-09
4.1729e-09
-7.29228e-09
5.17079e-09
-7.67657e-09
6.14863e-09
-7.79803e-09
7.0664e-09
-7.6294e-09
7.88522e-09
-7.13626e-09
8.57161e-09
-6.28012e-09
9.10359e-09
-5.02149e-09
9.47805e-09
-3.32389e-09
9.71825e-09
-1.15955e-09
9.87913e-09
1.48279e-09
1.00474e-08
4.5888e-09
1.03332e-08
8.11039e-09
1.19621e-08
1.08535e-08
2.29931e-10
-1.45795e-09
7.50391e-10
-3.67139e-09
1.45368e-09
-5.3356e-09
2.28151e-09
-6.61084e-09
3.19352e-09
-7.57331e-09
4.15471e-09
-8.25347e-09
5.13087e-09
-8.65272e-09
6.08739e-09
-8.75455e-09
6.99048e-09
-8.5325e-09
7.81028e-09
-7.95606e-09
8.52555e-09
-6.99539e-09
9.12943e-09
-5.62538e-09
9.63539e-09
-3.82985e-09
1.00819e-08
-1.60604e-09
1.0534e-08
1.03073e-09
1.10797e-08
4.04305e-09
1.18208e-08
7.36934e-09
1.09248e-08
1.2858e-08
1.85423e-10
-1.64337e-09
6.00898e-10
-4.08687e-09
1.15657e-09
-5.89127e-09
1.80487e-09
-7.25913e-09
2.51527e-09
-8.28371e-09
3.2632e-09
-9.0014e-09
4.02625e-09
-9.41577e-09
4.7836e-09
-9.51191e-09
5.5175e-09
-9.2664e-09
6.21626e-09
-8.65481e-09
6.87822e-09
-7.65735e-09
7.51602e-09
-6.26318e-09
8.16015e-09
-4.47398e-09
8.86062e-09
-2.30652e-09
9.68574e-09
2.05605e-10
1.07171e-08
3.01166e-09
1.20411e-08
6.04537e-09
9.22807e-09
1.37378e-08
5.21571e-11
-1.69553e-09
1.63201e-10
-4.19791e-09
3.0632e-10
-6.03439e-09
4.70059e-10
-7.42287e-09
6.50432e-10
-8.46409e-09
8.47268e-10
-9.19823e-09
1.06327e-09
-9.63177e-09
1.30436e-09
-9.753e-09
1.58099e-09
-9.54302e-09
1.90998e-09
-8.98381e-09
2.31673e-09
-8.06409e-09
2.83701e-09
-6.78346e-09
3.51784e-09
-5.15481e-09
4.41669e-09
-3.20537e-09
5.59875e-09
-9.76453e-10
7.13224e-09
1.47818e-09
9.08239e-09
4.09522e-09
6.80573e-09
1.15047e-08
-2.1055e-10
-1.48498e-09
-6.86282e-10
-3.72218e-09
-1.33023e-09
-5.39044e-09
-2.08569e-09
-6.66741e-09
-2.91003e-09
-7.63975e-09
-3.76318e-09
-8.34509e-09
-4.60303e-09
-8.79192e-09
-5.38352e-09
-8.97251e-09
-6.05384e-09
-8.87271e-09
-6.55832e-09
-8.47932e-09
-6.83688e-09
-7.78554e-09
-6.82591e-09
-6.79443e-09
-6.45999e-09
-5.52073e-09
-5.67425e-09
-3.99111e-09
-4.40764e-09
-2.24307e-09
-2.60683e-09
-3.22636e-10
-2.28931e-10
1.71732e-09
3.82224e-09
2.75455e-09
-3.03402e-10
-1.18157e-09
-9.90381e-10
-3.0352e-09
-1.92371e-09
-4.45711e-09
-3.02721e-09
-5.56391e-09
-4.24698e-09
-6.41997e-09
-5.53499e-09
-7.05708e-09
-6.84257e-09
-7.48433e-09
-8.11807e-09
-7.69701e-09
-9.30653e-09
-7.68425e-09
-1.03505e-08
-7.43534e-09
-1.11917e-08
-6.94433e-09
-1.17729e-08
-6.21324e-09
-1.20401e-08
-5.25356e-09
-1.19447e-08
-4.08649e-09
-1.14458e-08
-2.74195e-09
-1.05117e-08
-1.25675e-09
-9.12212e-09
3.27743e-10
1.968e-09
-7.26788e-09
-3.23733e-10
-8.5784e-10
-1.06191e-09
-2.29702e-09
-2.07459e-09
-3.44444e-09
-3.28508e-09
-4.35342e-09
-4.63892e-09
-5.06613e-09
-6.08779e-09
-5.60821e-09
-7.5831e-09
-5.98902e-09
-9.07362e-09
-6.20649e-09
-1.05052e-08
-6.25272e-09
-1.18215e-08
-6.11894e-09
-1.29664e-08
-5.7995e-09
-1.38851e-08
-5.2945e-09
-1.45274e-08
-4.6113e-09
-1.4849e-08
-3.76483e-09
-1.48141e-08
-2.77691e-09
-1.4396e-08
-1.67484e-09
-1.35786e-08
-4.89685e-10
7.4546e-10
-1.2356e-08
-2.88217e-10
-5.69623e-10
-9.5689e-10
-1.62835e-09
-1.88918e-09
-2.51215e-09
-3.01984e-09
-3.22275e-09
-4.30088e-09
-3.78509e-09
-5.68931e-09
-4.21978e-09
-7.14213e-09
-4.5362e-09
-8.61423e-09
-4.73438e-09
-1.0058e-08
-4.80899e-09
-1.14238e-08
-4.75311e-09
-1.26618e-08
-4.56148e-09
-1.37235e-08
-4.23277e-09
-1.4564e-08
-3.77084e-09
-1.51437e-08
-3.18518e-09
-1.543e-08
-2.49055e-09
-1.53989e-08
-1.706e-09
-1.50349e-08
-8.53644e-10
4.24453e-11
-1.43319e-08
-2.27174e-10
-3.42448e-10
-7.71092e-10
-1.08443e-09
-1.54785e-09
-1.73539e-09
-2.50684e-09
-2.26377e-09
-3.60828e-09
-2.68366e-09
-4.81628e-09
-3.01179e-09
-6.09538e-09
-3.25709e-09
-7.40877e-09
-3.421e-09
-8.71757e-09
-3.50018e-09
-9.98123e-09
-3.48945e-09
-1.11584e-08
-3.38428e-09
-1.22086e-08
-3.1826e-09
-1.30935e-08
-2.88591e-09
-1.37791e-08
-2.49965e-09
-1.42365e-08
-2.03312e-09
-1.44436e-08
-1.49886e-09
-1.43855e-08
-9.11769e-10
-2.88533e-10
-1.40545e-08
-1.6126e-10
-1.81189e-10
-5.69112e-10
-6.76578e-10
-1.17148e-09
-1.13302e-09
-1.93074e-09
-1.5045e-09
-2.81486e-09
-1.79953e-09
-3.79504e-09
-2.03161e-09
-4.84349e-09
-2.20864e-09
-5.93182e-09
-2.33267e-09
-7.03023e-09
-2.40177e-09
-8.10739e-09
-2.41229e-09
-9.13102e-09
-2.36064e-09
-1.0069e-08
-2.24467e-09
-1.08904e-08
-2.0645e-09
-1.15671e-08
-1.82293e-09
-1.20748e-08
-1.52541e-09
-1.2394e-08
-1.17966e-09
-1.25106e-08
-7.95162e-10
-3.82781e-10
-1.24164e-08
-1.02453e-10
-7.87354e-11
-3.87391e-10
-3.9164e-10
-8.27739e-10
-6.92674e-10
-1.39571e-09
-9.3653e-10
-2.06591e-09
-1.12933e-09
-2.81602e-09
-1.2815e-09
-3.62525e-09
-1.39942e-09
-4.47285e-09
-1.48507e-09
-5.33715e-09
-1.53747e-09
-6.19526e-09
-1.55418e-09
-7.02331e-09
-1.5326e-09
-7.79706e-09
-1.47091e-09
-8.4929e-09
-1.36866e-09
-9.08877e-09
-1.22706e-09
-9.56515e-09
-1.04903e-09
-9.90579e-09
-8.39014e-10
-1.00983e-08
-6.02633e-10
-3.46426e-10
-1.01347e-08
-5.63024e-11
-2.24329e-11
-2.41934e-10
-2.06008e-10
-5.46257e-10
-3.88351e-10
-9.48428e-10
-5.3436e-10
-1.42882e-09
-6.48937e-10
-1.97083e-09
-7.39493e-10
-2.55969e-09
-8.10563e-10
-3.18105e-09
-8.63706e-10
-3.82006e-09
-8.98457e-10
-4.46091e-09
-9.13332e-10
-5.08687e-09
-9.06638e-10
-5.68072e-09
-8.77063e-10
-6.22532e-09
-8.24051e-10
-6.70438e-09
-7.48002e-10
-7.1031e-09
-6.50312e-10
-7.40881e-09
-5.33301e-10
-7.61143e-09
-4.00017e-10
-2.54013e-10
-7.70384e-09
-2.41729e-11
1.73993e-12
-1.35893e-10
-9.42885e-11
-3.33146e-10
-1.91098e-10
-6.00229e-10
-2.67277e-10
-9.22672e-10
-3.26493e-10
-1.28886e-09
-3.73307e-10
-1.68896e-09
-4.10456e-10
-2.11375e-09
-4.3892e-10
-2.5537e-09
-4.58505e-10
-2.99862e-09
-4.68415e-10
-3.43756e-09
-4.677e-10
-3.85905e-09
-4.55571e-10
-4.2515e-09
-4.31603e-10
-4.60365e-09
-3.95853e-10
-4.90507e-09
-3.48886e-10
-5.14662e-09
-2.91751e-10
-5.32075e-09
-2.25893e-10
-1.52979e-10
-5.42178e-09
-5.05423e-12
6.79415e-12
-6.54297e-11
-3.3913e-11
-1.82108e-10
-7.44199e-11
-3.43745e-10
-1.05639e-10
-5.40592e-10
-1.29647e-10
-7.65274e-10
-1.48625e-10
-1.01189e-09
-1.63844e-10
-1.27504e-09
-1.75762e-10
-1.54924e-09
-1.84313e-10
-1.82849e-09
-1.8916e-10
-2.10631e-09
-1.89883e-10
-2.37576e-09
-1.86117e-10
-2.62973e-09
-1.77639e-10
-2.86117e-09
-1.64413e-10
-3.06344e-09
-1.4661e-10
-3.23059e-09
-1.24599e-10
-3.35758e-09
-9.89069e-11
-7.01518e-11
-3.44041e-09
3.38847e-12
3.40567e-12
-2.37152e-11
-6.80935e-12
-8.1739e-11
-1.63961e-11
-1.63756e-10
-2.3622e-11
-2.64297e-10
-2.91052e-11
-3.79482e-10
-3.34408e-11
-5.06366e-10
-3.69595e-11
-6.42348e-10
-3.978e-11
-7.84773e-10
-4.18883e-11
-9.30731e-10
-4.32022e-11
-1.077e-09
-4.36167e-11
-1.22008e-09
-4.30365e-11
-1.35632e-09
-4.13966e-11
-1.48206e-09
-3.86747e-11
-1.59377e-09
-3.48954e-11
-1.68824e-09
-3.01291e-11
-1.76268e-09
-2.44723e-11
-1.80613e-11
-1.81477e-09
3.40567e-12
-3.40368e-12
-1.97998e-11
-4.34218e-11
-7.2527e-11
-1.05968e-10
-1.42927e-10
-1.82707e-10
-2.24596e-10
-2.67798e-10
-3.11414e-10
-3.54451e-10
-3.95847e-10
-4.34522e-10
-4.69418e-10
-4.99547e-10
-5.24019e-10
-5.4208e-10
3.94664e-11
-3.94664e-11
1.3324e-10
-9.37737e-11
2.55958e-10
-1.22718e-10
3.85191e-10
-1.29232e-10
5.03635e-10
-1.18444e-10
5.98459e-10
-9.48241e-11
6.60525e-10
-6.20658e-11
6.83655e-10
-2.313e-11
6.63878e-10
1.97767e-11
5.9896e-10
6.4918e-11
4.87749e-10
1.11212e-10
3.29823e-10
1.57926e-10
1.25157e-10
2.04666e-10
-1.26125e-10
2.51282e-10
-4.23921e-10
2.97796e-10
-7.68251e-10
3.4433e-10
-1.1593e-09
3.91049e-10
-1.59742e-09
4.38116e-10
-2.08307e-09
4.8565e-10
-2.61675e-09
5.33686e-10
-3.19891e-09
5.82157e-10
-3.82977e-09
6.30863e-10
-4.50924e-09
6.79471e-10
-5.23674e-09
7.275e-10
-6.01107e-09
7.74327e-10
-6.83026e-09
8.19193e-10
-7.69148e-09
8.61213e-10
-8.59087e-09
8.99395e-10
-9.52354e-09
9.32663e-10
-1.04834e-08
9.59878e-10
-1.14633e-08
9.79871e-10
-1.24548e-08
9.91474e-10
-1.34483e-08
9.93554e-10
-1.44334e-08
9.85055e-10
-1.53984e-08
9.65033e-10
-1.63311e-08
9.32697e-10
-1.72185e-08
8.87446e-10
-1.80475e-08
8.28906e-10
-1.88044e-08
7.56956e-10
-1.94762e-08
6.71755e-10
-2.00499e-08
5.73757e-10
-2.05136e-08
4.63718e-10
-2.08563e-08
3.42691e-10
-2.10683e-08
2.12019e-10
-2.11418e-08
7.34345e-11
-2.10698e-08
-7.19947e-11
-2.08485e-08
-2.21289e-10
-2.04757e-08
-3.72804e-10
-1.99514e-08
-5.24302e-10
-1.92778e-08
-6.73563e-10
-1.84594e-08
-8.18448e-10
-1.75024e-08
-9.56939e-10
-1.64152e-08
-1.0872e-09
-1.52076e-08
-1.20761e-09
-1.38908e-08
-1.31681e-09
-1.24771e-08
-1.41375e-09
-1.09794e-08
-1.49764e-09
-9.41143e-09
-1.56801e-09
-7.78678e-09
-1.62465e-09
-6.11919e-09
-1.66759e-09
-4.42215e-09
-1.69704e-09
-2.70881e-09
-1.71334e-09
-9.91951e-10
-1.71686e-09
7.16102e-10
-1.70805e-09
2.40351e-09
-1.68741e-09
4.05862e-09
-1.65511e-09
5.66988e-09
-1.61126e-09
7.22587e-09
-1.55599e-09
8.71513e-09
-1.48926e-09
1.0126e-08
-1.41087e-09
1.14466e-08
-1.32056e-09
1.26646e-08
-1.21808e-09
1.37679e-08
-1.10324e-09
1.4744e-08
-9.76077e-10
1.55808e-08
-8.36879e-10
1.62672e-08
-6.86338e-10
1.67928e-08
-5.25619e-10
1.71492e-08
-3.56443e-10
1.73305e-08
-1.81235e-10
1.73318e-08
-1.36876e-12
1.71555e-08
1.76351e-10
1.68041e-08
3.51427e-10
1.62855e-08
5.18546e-10
1.56118e-08
6.73666e-10
1.47991e-08
8.12784e-10
1.38668e-08
9.32256e-10
1.28378e-08
1.02905e-09
1.17368e-08
1.10094e-09
1.05901e-08
1.1467e-09
9.42394e-09
1.16619e-09
8.26359e-09
1.16035e-09
7.13245e-09
1.13115e-09
6.05102e-09
1.08142e-09
5.03637e-09
1.01465e-09
4.10167e-09
9.34695e-10
3.25612e-09
8.45556e-10
2.50495e-09
7.51168e-10
1.84971e-09
6.55236e-10
1.28856e-09
5.61155e-10
8.16611e-10
4.71949e-10
4.26385e-10
3.90226e-10
1.08287e-10
3.18098e-10
-1.48785e-10
2.57072e-10
-3.5669e-10
2.07905e-10
-5.27202e-10
1.70512e-10
-6.71193e-10
1.43991e-10
-7.97932e-10
1.26739e-10
-9.14598e-10
1.16667e-10
-1.02607e-09
1.11471e-10
-1.13498e-09
1.08914e-10
-1.24204e-09
1.07051e-10
-1.34641e-09
1.04372e-10
-1.44627e-09
9.98591e-11
-1.53923e-09
9.29665e-11
-1.62279e-09
8.35557e-11
-1.69459e-09
7.18044e-11
-1.75271e-09
5.8113e-11
-1.79573e-09
4.30192e-11
-1.82285e-09
2.71276e-11
-1.83392e-09
1.10626e-11
-1.82927e-09
-4.64378e-12
-1.80988e-09
-1.93913e-11
-1.77707e-09
-3.28111e-11
-1.73252e-09
-4.45476e-11
-1.67815e-09
-5.43695e-11
-1.61601e-09
-6.21473e-11
-1.54816e-09
-6.78476e-11
-1.47664e-09
-7.15224e-11
-1.40334e-09
-7.32957e-11
-1.32999e-09
-7.33473e-11
-1.2581e-09
-7.18962e-11
-1.18891e-09
-6.91853e-11
-1.12344e-09
-6.54658e-11
-1.06246e-09
-6.09853e-11
-1.00648e-09
-5.59772e-11
-9.55829e-10
-5.06537e-11
-9.10628e-10
-4.52003e-11
-8.70854e-10
-3.97738e-11
-8.36353e-10
-3.45012e-11
-8.06872e-10
-2.94812e-11
-7.82086e-10
-2.47859e-11
-7.61622e-10
-2.04639e-11
-7.45078e-10
-1.65439e-11
-7.32041e-10
-1.30374e-11
-7.22098e-10
-9.94291e-12
-7.1485e-10
-7.24834e-12
-7.09915e-10
-4.93424e-12
-7.06939e-10
-2.97623e-12
-7.05584e-10
-1.35566e-12
-7.05588e-10
4.07651e-15
-7.06638e-10
1.05078e-12
-7.08519e-10
1.88085e-12
-7.11021e-10
2.50215e-12
-7.13964e-10
2.94287e-12
-7.17194e-10
3.22996e-12
-7.20583e-10
3.38863e-12
-7.24025e-10
3.44255e-12
-7.27439e-10
3.414e-12
-7.30763e-10
3.32381e-12
-7.33954e-10
3.19124e-12
-7.36988e-10
3.03363e-12
-7.39854e-10
2.8659e-12
-7.42553e-10
2.69942e-12
-7.45094e-10
2.54087e-12
-7.47485e-10
2.39041e-12
-7.49724e-10
2.23985e-12
-7.51795e-10
2.07053e-12
-7.53646e-10
1.85126e-12
-7.55183e-10
1.5366e-12
-7.56248e-10
1.06481e-12
-7.56626e-10
3.78296e-13
-7.55959e-10
-6.66723e-13
-7.53824e-10
-2.13526e-12
-7.49645e-10
-4.17935e-12
-7.42646e-10
-6.99888e-12
-7.31764e-10
-1.08814e-11
-7.15353e-10
-1.64115e-11
-6.89881e-10
-2.54716e-11
-6.51239e-10
-3.86427e-11
-8.24241e-11
-5.68814e-10
6.59576e-11
-1.05424e-10
2.02633e-10
-2.30449e-10
3.62996e-10
-2.83082e-10
5.10099e-10
-2.76335e-10
6.14142e-10
-2.22487e-10
6.51752e-10
-1.32435e-10
6.05104e-10
-1.54176e-11
4.60974e-10
1.21e-10
2.09911e-10
2.7084e-10
-1.54721e-10
4.2955e-10
-6.37343e-10
5.93834e-10
-1.24085e-09
7.6143e-10
-1.96709e-09
9.30908e-10
-2.81728e-09
1.10147e-09
-3.79225e-09
1.27276e-09
-4.8926e-09
1.44469e-09
-6.1188e-09
1.61724e-09
-7.47107e-09
1.79039e-09
-8.94934e-09
1.96392e-09
-1.0553e-08
2.13736e-09
-1.22807e-08
2.30987e-09
-1.41301e-08
2.48023e-09
-1.60974e-08
2.64675e-09
-1.81772e-08
2.80732e-09
-2.03623e-08
2.9594e-09
-2.26431e-08
3.10005e-09
-2.50079e-08
3.22601e-09
-2.74423e-08
3.33374e-09
-2.99292e-08
3.41956e-09
-3.2449e-08
3.4797e-09
-3.49796e-08
3.51048e-09
-3.74965e-08
3.50834e-09
-3.9973e-08
3.47005e-09
-4.23807e-08
3.39279e-09
-4.46899e-08
3.27426e-09
-4.687e-08
3.11282e-09
-4.88902e-08
2.90758e-09
-5.07197e-08
2.65845e-09
-5.2329e-08
2.36622e-09
-5.36898e-08
2.0326e-09
-5.47762e-08
1.66018e-09
-5.5565e-08
1.25244e-09
-5.6036e-08
8.13686e-10
-5.61729e-08
3.4898e-10
-5.59635e-08
-1.36008e-10
-5.53999e-08
-6.35593e-10
-5.44786e-08
-1.14256e-09
-5.3201e-08
-1.65043e-09
-5.15728e-08
-2.15251e-09
-4.96041e-08
-2.64226e-09
-4.73091e-08
-3.11347e-09
-4.47056e-08
-3.56043e-09
-4.18147e-08
-3.97804e-09
-3.86604e-08
-4.36195e-09
-3.52686e-08
-4.70859e-09
-3.16671e-08
-5.01525e-09
-2.78846e-08
-5.28009e-09
-2.39506e-08
-5.50206e-09
-1.98944e-08
-5.68089e-09
-1.5745e-08
-5.8169e-09
-1.15311e-08
-5.91095e-09
-7.2803e-09
-5.96418e-09
-3.01928e-09
-5.97787e-09
1.22588e-09
-5.95322e-09
5.42967e-09
-5.89119e-09
9.56702e-09
-5.79246e-09
1.36132e-08
-5.65746e-09
1.75434e-08
-5.48616e-09
2.13321e-08
-5.278e-09
2.49532e-08
-5.03198e-09
2.83795e-08
-4.74681e-09
3.15825e-08
-4.4211e-09
3.45329e-08
-4.05366e-09
3.72006e-08
-3.64372e-09
3.9555e-08
-3.19131e-09
4.15662e-08
-2.69759e-09
4.32058e-08
-2.16514e-09
4.44476e-08
-1.59825e-09
4.52694e-08
-1.00307e-09
4.56556e-08
-3.87584e-10
4.55945e-08
2.37436e-10
4.50857e-08
8.60249e-10
4.41365e-08
1.4678e-09
4.27645e-08
2.04563e-09
4.09981e-08
2.57922e-09
3.88758e-08
3.05453e-09
3.6446e-08
3.45887e-09
3.37651e-08
3.78176e-09
3.08962e-08
4.01568e-09
2.79056e-08
4.1567e-09
2.48612e-08
4.20476e-09
2.18286e-08
4.16373e-09
1.88689e-08
4.04114e-09
1.6036e-08
3.84755e-09
1.3375e-08
3.59578e-09
1.09205e-08
3.30002e-09
8.69672e-09
2.97494e-09
6.71693e-09
2.63502e-09
4.98415e-09
2.29394e-09
3.49194e-09
1.96416e-09
2.22558e-09
1.65658e-09
1.16355e-09
1.38013e-09
2.79358e-10
1.14127e-09
-4.56348e-10
9.43611e-10
-1.07346e-09
7.87621e-10
-1.60014e-09
6.70675e-10
-2.06099e-09
5.8759e-10
-2.4757e-09
5.31374e-10
-2.8584e-09
4.94172e-10
-3.21772e-09
4.68236e-10
-3.55739e-09
4.46724e-10
-3.87724e-09
4.24223e-10
-4.17436e-09
3.96973e-10
-4.44423e-09
3.62842e-10
-4.68181e-09
3.2113e-10
-4.88227e-09
2.72268e-10
-5.04167e-09
2.1751e-10
-5.15728e-09
1.58626e-10
-5.2278e-09
9.76539e-11
-5.25343e-09
3.66898e-11
-5.23578e-09
-2.22881e-11
-5.1777e-09
-7.74756e-11
-5.08311e-09
-1.27405e-10
-4.95672e-09
-1.70931e-10
-4.80382e-09
-2.07274e-10
-4.62995e-09
-2.36012e-10
-4.44074e-09
-2.57062e-10
-4.24162e-09
-2.70638e-10
-4.03771e-09
-2.77208e-10
-3.83363e-09
-2.77434e-10
-3.63341e-09
-2.72116e-10
-3.44045e-09
-2.62138e-10
-3.25751e-09
-2.48413e-10
-3.08665e-09
-2.31842e-10
-2.92935e-09
-2.13277e-10
-2.78651e-09
-1.93494e-10
-2.65853e-09
-1.73176e-10
-2.5454e-09
-1.52904e-10
-2.44676e-09
-1.33149e-10
-2.36195e-09
-1.14285e-10
-2.29015e-09
-9.65852e-11
-2.23038e-09
-8.02398e-11
-2.18156e-09
-6.53635e-11
-2.14259e-09
-5.20089e-11
-2.11235e-09
-4.01784e-11
-2.08976e-09
-2.98349e-11
-2.07379e-09
-2.09124e-11
-2.06344e-09
-1.33245e-11
-2.05782e-09
-6.97204e-12
-2.05608e-09
-1.73442e-12
-2.05751e-09
2.47393e-12
-2.06141e-09
5.78335e-12
-2.0672e-09
8.29896e-12
-2.07438e-09
1.01229e-11
-2.08251e-09
1.13546e-11
-2.09121e-09
1.20884e-11
-2.10018e-09
1.2413e-11
-2.10918e-09
1.24118e-11
-2.11802e-09
1.21627e-11
-2.12656e-09
1.17374e-11
-2.13473e-09
1.11999e-11
-2.14247e-09
1.06045e-11
-2.14976e-09
9.99158e-12
-2.1566e-09
9.38328e-12
-2.16299e-09
8.77706e-12
-2.16889e-09
8.13851e-12
-2.17421e-09
7.39411e-12
-2.17878e-09
6.42392e-12
-2.1823e-09
5.05581e-12
-2.1843e-09
3.06006e-12
-2.18408e-09
1.64985e-13
-2.18073e-09
-4.01828e-12
-2.173e-09
-9.86989e-12
-2.15926e-09
-1.79178e-11
-2.13742e-09
-2.88373e-11
-2.10468e-09
-4.36221e-11
-2.057e-09
-6.40945e-11
-1.9882e-09
-9.42673e-11
-1.88701e-09
-1.39835e-10
-2.3209e-10
-1.73734e-09
4.67639e-11
-1.52188e-10
1.24123e-10
-3.07808e-10
1.82811e-10
-3.41769e-10
1.84257e-10
-2.7778e-10
9.75465e-11
-1.35777e-10
-1.02025e-10
6.7137e-11
-4.33956e-10
3.16513e-10
-9.1343e-10
6.00475e-10
-1.55208e-09
9.09487e-10
-2.35869e-09
1.23616e-09
-3.33983e-09
1.57497e-09
-4.50034e-09
1.92194e-09
-5.84375e-09
2.27431e-09
-7.37255e-09
2.63028e-09
-9.08841e-09
2.98863e-09
-1.09922e-08
3.34847e-09
-1.30839e-08
3.70898e-09
-1.53627e-08
4.06914e-09
-1.78263e-08
4.42756e-09
-2.04712e-08
4.78227e-09
-2.3292e-08
5.13062e-09
-2.6281e-08
5.4692e-09
-2.9428e-08
5.79378e-09
-3.27201e-08
6.09938e-09
-3.61409e-08
6.3803e-09
-3.96711e-08
6.63022e-09
-4.32875e-08
6.84237e-09
-4.69635e-08
7.00972e-09
-5.06691e-08
7.12515e-09
-5.43711e-08
7.18171e-09
-5.80334e-08
7.17283e-09
-6.16177e-08
7.09258e-09
-6.50835e-08
6.93587e-09
-6.83894e-08
6.6987e-09
-7.14935e-08
6.37833e-09
-7.43541e-08
5.97342e-09
-7.69307e-08
5.48418e-09
-7.91847e-08
4.91243e-09
-8.10801e-08
4.26162e-09
-8.25843e-08
3.53682e-09
-8.36687e-08
2.74464e-09
-8.43094e-08
1.89313e-09
-8.44873e-08
9.91536e-10
-8.41888e-08
5.04724e-11
-8.34054e-08
-9.19396e-10
-8.21353e-08
-1.90567e-09
-8.03815e-08
-2.89635e-09
-7.81527e-08
-3.87928e-09
-7.54626e-08
-4.84262e-09
-7.23298e-08
-5.77502e-09
-6.87773e-08
-6.66594e-09
-6.48319e-08
-7.50584e-09
-6.05236e-08
-8.28639e-09
-5.58849e-08
-9.00061e-09
-5.09505e-08
-9.64298e-09
-4.57563e-08
-1.02095e-08
-4.03389e-08
-1.06975e-08
-3.4735e-08
-1.11059e-08
-2.89811e-08
-1.14348e-08
-2.31127e-08
-1.16853e-08
-1.71645e-08
-1.18591e-08
-1.11699e-08
-1.19588e-08
-5.16111e-09
-1.19867e-08
8.30788e-10
-1.19451e-08
6.77522e-09
-1.18356e-08
1.2642e-08
-1.16592e-08
1.84011e-08
-1.14165e-08
2.40219e-08
-1.1107e-08
2.9473e-08
-1.07291e-08
3.47213e-08
-1.02803e-08
3.97318e-08
-9.75736e-09
4.44676e-08
-9.15687e-09
4.88893e-08
-8.47539e-09
5.29558e-08
-7.71017e-09
5.66241e-08
-6.85966e-09
5.98508e-08
-5.92421e-09
6.25923e-08
-4.90665e-09
6.48069e-08
-3.81289e-09
6.64562e-08
-2.65238e-09
6.75072e-08
-1.43852e-09
6.79334e-08
-1.8877e-10
6.77185e-08
1.07511e-09
6.68579e-08
2.32842e-09
6.53602e-08
3.54333e-09
6.3249e-08
4.69044e-09
6.05635e-08
5.73999e-09
5.73589e-08
6.6635e-09
5.3705e-08
7.43562e-09
4.96849e-08
8.03584e-09
4.53914e-08
8.45015e-09
4.0924e-08
8.67218e-09
3.63838e-08
8.70389e-09
3.18695e-08
8.55548e-09
2.74724e-08
8.24464e-09
2.3273e-08
7.79523e-09
1.93374e-08
7.23553e-09
1.57161e-08
6.59631e-09
1.2442e-08
5.90909e-09
9.53136e-09
5.20457e-09
6.98421e-09
4.51131e-09
4.78615e-09
3.85465e-09
2.91072e-09
3.25556e-09
1.32238e-09
2.72961e-09
-2.00586e-11
2.28605e-09
-1.15977e-09
1.92734e-09
-2.13838e-09
1.64928e-09
-2.99289e-09
1.4421e-09
-3.75368e-09
1.29216e-09
-4.44337e-09
1.18387e-09
-5.07677e-09
1.10164e-09
-5.6616e-09
1.03156e-09
-6.19987e-09
9.62493e-10
-6.68947e-09
8.86569e-10
-7.12581e-09
7.9918e-10
-7.50329e-09
6.98615e-10
-7.81652e-09
5.85498e-10
-8.06117e-09
4.62154e-10
-8.23454e-09
3.32002e-10
-8.33593e-09
1.99037e-10
-8.36663e-09
6.73973e-11
-8.32995e-09
-5.89719e-11
-8.23088e-09
-1.7655e-10
-8.07587e-09
-2.82415e-10
-7.87246e-09
-3.74339e-10
-7.62891e-09
-4.50828e-10
-7.3538e-09
-5.11114e-10
-7.05575e-09
-5.5511e-10
-6.74306e-09
-5.83331e-10
-6.42347e-09
-5.96797e-10
-6.10399e-09
-5.9692e-10
-5.79072e-09
-5.85386e-10
-5.48881e-09
-5.64046e-10
-5.20241e-09
-5.34811e-10
-4.93469e-09
-4.99563e-10
-4.68788e-09
-4.6008e-10
-4.46339e-09
-4.17989e-10
-4.26185e-09
-3.7472e-10
-4.08325e-09
-3.31496e-10
-3.92708e-09
-2.89317e-10
-3.7924e-09
-2.48972e-10
-3.67793e-09
-2.1105e-10
-3.58221e-09
-1.75962e-10
-3.50361e-09
-1.43961e-10
-3.44045e-09
-1.15169e-10
-3.39103e-09
-8.96027e-11
-3.35367e-09
-6.71917e-11
-3.32678e-09
-4.78047e-11
-3.30884e-09
-3.12648e-11
-3.29845e-09
-1.73645e-11
-3.2943e-09
-5.87658e-12
-3.29525e-09
3.42433e-12
-3.30025e-09
1.07798e-11
-3.30837e-09
1.64159e-11
-3.3188e-09
2.05538e-11
-3.33085e-09
2.34046e-11
-3.34393e-09
2.51686e-11
-3.35755e-09
2.60349e-11
-3.37132e-09
2.61813e-11
-3.38493e-09
2.5773e-11
-3.39815e-09
2.49618e-11
-3.41084e-09
2.38822e-11
-3.42288e-09
2.26467e-11
-3.43423e-09
2.1338e-11
-3.44484e-09
1.99985e-11
-3.45468e-09
1.86175e-11
-3.46366e-09
1.71165e-11
-3.4716e-09
1.53338e-11
-3.47818e-09
1.30099e-11
-3.48291e-09
9.77607e-12
-3.48499e-09
5.14643e-12
-3.48334e-09
-1.48274e-12
-3.47651e-09
-1.08568e-11
-3.46254e-09
-2.38375e-11
-3.43897e-09
-4.14811e-11
-3.40269e-09
-6.51264e-11
-3.34965e-09
-9.66584e-11
-3.27456e-09
-1.39188e-10
-3.17036e-09
-1.98465e-10
-3.02571e-09
-2.84483e-10
-4.15716e-10
-2.84208e-09
-2.37461e-13
-1.5195e-10
-4.83216e-11
-2.59724e-10
-1.83451e-10
-2.0664e-10
-4.37035e-10
-2.4197e-11
-8.34272e-10
2.6146e-10
-1.39553e-09
6.28391e-10
-2.13718e-09
1.05817e-09
-3.07237e-09
1.53567e-09
-4.21165e-09
2.04877e-09
-5.56347e-09
2.58797e-09
-7.13453e-09
3.14604e-09
-8.93011e-09
3.71752e-09
-1.09542e-08
4.2984e-09
-1.32095e-08
4.88561e-09
-1.56976e-08
5.47666e-09
-1.84184e-08
6.06926e-09
-2.13703e-08
6.66094e-09
-2.45499e-08
7.24876e-09
-2.79514e-08
7.82905e-09
-3.15664e-08
8.39722e-09
-3.53833e-08
8.94758e-09
-3.93874e-08
9.47333e-09
-4.35602e-08
9.96655e-09
-4.78791e-08
1.04183e-08
-5.23176e-08
1.08188e-08
-5.68449e-08
1.11576e-08
-6.14264e-08
1.14239e-08
-6.60236e-08
1.16069e-08
-7.05946e-08
1.16962e-08
-7.50948e-08
1.16819e-08
-7.94774e-08
1.15554e-08
-8.36942e-08
1.13094e-08
-8.76964e-08
1.0938e-08
-9.14354e-08
1.04378e-08
-9.48641e-08
9.80702e-09
-9.79372e-08
9.04655e-09
-1.00613e-07
8.15948e-09
-1.02851e-07
7.1513e-09
-1.0462e-07
6.0298e-09
-1.05888e-07
4.80496e-09
-1.06632e-07
3.48874e-09
-1.06834e-07
2.09487e-09
-1.06481e-07
6.38573e-10
-1.05566e-07
-8.63678e-10
-1.04091e-07
-2.39483e-09
-1.0206e-07
-3.93707e-09
-9.94832e-08
-5.47277e-09
-9.6378e-08
-6.98454e-09
-9.27649e-08
-8.45567e-09
-8.86695e-08
-9.87046e-09
-8.41209e-08
-1.12145e-08
-7.91519e-08
-1.24749e-08
-7.37975e-08
-1.36407e-08
-6.80951e-08
-1.4703e-08
-6.20834e-08
-1.56547e-08
-5.58016e-08
-1.64912e-08
-4.92893e-08
-1.72098e-08
-4.25856e-08
-1.78097e-08
-3.57285e-08
-1.82919e-08
-2.87551e-08
-1.86587e-08
-2.17007e-08
-1.89135e-08
-1.45992e-08
-1.90603e-08
-7.48288e-09
-1.9103e-08
-3.82744e-10
-1.90453e-08
6.6713e-09
-1.88897e-08
1.36497e-08
-1.86376e-08
2.05224e-08
-1.82893e-08
2.72588e-08
-1.78435e-08
3.3827e-08
-1.72972e-08
4.01926e-08
-1.66459e-08
4.63191e-08
-1.58838e-08
5.21665e-08
-1.50043e-08
5.76918e-08
-1.40006e-08
6.28483e-08
-1.28667e-08
6.75866e-08
-1.1598e-08
7.18548e-08
-1.01924e-08
7.55992e-08
-8.65112e-09
7.87663e-08
-6.97997e-09
8.13037e-08
-5.1898e-09
8.31627e-08
-3.29746e-09
8.43001e-08
-1.32619e-09
8.46812e-08
6.93955e-10
8.42828e-08
2.72687e-09
8.30955e-08
4.73064e-09
8.11267e-08
6.65923e-09
7.84025e-08
8.46415e-09
7.49692e-08
1.00968e-08
7.08935e-08
1.15113e-08
6.62618e-08
1.26675e-08
6.1178e-08
1.35339e-08
5.57598e-08
1.40904e-08
5.01334e-08
1.43303e-08
4.44279e-08
1.4261e-08
3.87688e-08
1.39037e-08
3.3272e-08
1.3292e-08
2.80383e-08
1.24692e-08
2.31493e-08
1.14853e-08
1.86647e-08
1.03937e-08
1.46211e-08
9.24816e-09
1.10327e-08
8.09975e-09
7.89267e-09
6.99464e-09
5.17656e-09
5.97167e-09