/*--------------------------------*- C++ -*----------------------------------*\
  =========                 |
  \\      /  F ield         | OpenFOAM: The Open Source CFD Toolbox
   \\    /   O peration     | Website:  https://openfoam.org
    \\  /    A nd           | Version:  8
     \\/     M anipulation  |
\*---------------------------------------------------------------------------*/
FoamFile
{
    version     2.0;
    format      ascii;
    class       volVectorField;
    location    "0.94";
    object      U;
}
// * * * * * * * * * * * * * * * * * * * * * * * * * * * * * * * * * * * * * //

dimensions      [0 1 -1 0 0 0 0];

internalField   nonuniform List<vector> 
12225
(
(-6.6911e-06 9.08159e-07 0)
(-3.10597e-06 -5.10003e-07 0)
(2.59657e-05 -1.29165e-06 0)
(7.28493e-05 -1.97338e-06 0)
(0.000134071 -2.54951e-06 0)
(0.000206723 -3.09138e-06 0)
(0.000289107 -3.62296e-06 0)
(0.000380015 -4.16921e-06 0)
(0.000478638 -4.75483e-06 0)
(0.000584499 -5.41809e-06 0)
(0.000697517 -6.2229e-06 0)
(0.000818072 -7.27788e-06 0)
(0.00094703 -8.77499e-06 0)
(0.00108513 -1.10042e-05 0)
(0.00123018 -1.36089e-05 0)
(0.00137155 -1.18103e-05 0)
(0.00142976 -1.17832e-05 0)
(-3.34875e-05 0.000983353 0)
(-1.36973e-05 2.32686e-06 0)
(5.07808e-06 -7.90563e-06 0)
(9.30342e-05 -1.79647e-05 0)
(0.00023188 -2.65892e-05 0)
(0.00041191 -3.41831e-05 0)
(0.000624879 -4.11922e-05 0)
(0.000865514 -4.79047e-05 0)
(0.00112979 -5.45083e-05 0)
(0.00141456 -6.11572e-05 0)
(0.00171724 -6.80276e-05 0)
(0.00203556 -7.53361e-05 0)
(0.00236709 -8.32782e-05 0)
(0.00270768 -9.17102e-05 0)
(0.00304642 -9.87838e-05 0)
(0.00335152 -9.45869e-05 0)
(0.00352583 -3.06926e-05 0)
(0.00329439 0.000296312 0)
(0.000470835 0.00247361 0)
(-1.58776e-05 2.72968e-06 0)
(2.64933e-05 -2.5208e-05 0)
(0.000176214 -5.41843e-05 0)
(0.000407746 -7.93431e-05 0)
(0.000705863 -0.000101656 0)
(0.00105733 -0.000122168 0)
(0.00145303 -0.000141604 0)
(0.0018856 -0.000160375 0)
(0.0023487 -0.000178726 0)
(0.00283623 -0.000196797 0)
(0.00334152 -0.000214513 0)
(0.00385555 -0.000231049 0)
(0.00436271 -0.000243135 0)
(0.00482964 -0.000239706 0)
(0.00517829 -0.00018344 0)
(0.0052107 5.52875e-05 0)
(0.00451089 0.000926126 0)
(0.00117557 0.00424563 0)
(-1.44107e-05 6.71168e-08 0)
(5.93667e-05 -5.54895e-05 0)
(0.000273652 -0.000114025 0)
(0.00059784 -0.000165416 0)
(0.00101193 -0.000211198 0)
(0.00149809 -0.000253141 0)
(0.00204316 -0.000292501 0)
(0.0026359 -0.000329869 0)
(0.00326582 -0.000365369 0)
(0.00392186 -0.000398645 0)
(0.0045907 -0.000428367 0)
(0.0052533 -0.000450679 0)
(0.00587762 -0.000454927 0)
(0.00640221 -0.000411986 0)
(0.00670195 -0.000240591 0)
(0.00651043 0.000289975 0)
(0.00538646 0.0018331 0)
(0.00201414 0.00612623 0)
(-1.0308e-05 -8.05154e-06 0)
(0.000101612 -0.00010169 0)
(0.000382719 -0.000200467 0)
(0.000798475 -0.000288051 0)
(0.00132476 -0.000366328 0)
(0.00193954 -0.000437785 0)
(0.00262549 -0.000504155 0)
(0.00336695 -0.000565998 0)
(0.0041484 -0.000622879 0)
(0.00495247 -0.000673111 0)
(0.00575722 -0.00071259 0)
(0.00653114 -0.000731642 0)
(0.00722346 -0.000707245 0)
(0.00774526 -0.000584168 0)
(0.00793672 -0.000228379 0)
(0.00751127 0.000683463 0)
(0.00609283 0.0029084 0)
(0.00293512 0.00794046 0)
(-4.41433e-06 -2.38822e-05 0)
(0.000150819 -0.000167009 0)
(0.000499931 -0.000316805 0)
(0.00100472 -0.0004507 0)
(0.00163741 -0.000570639 0)
(0.00237221 -0.000679683 0)
(0.00318749 -0.000779822 0)
(0.0040628 -0.000871193 0)
(0.00497681 -0.000952103 0)
(0.00590478 -0.00101837 0)
(0.00681492 -0.00106117 0)
(0.00766228 -0.00106192 0)
(0.00837816 -0.000980716 0)
(0.00885252 -0.000731387 0)
(0.00891027 -0.000128449 0)
(0.00828785 0.00121602 0)
(0.00672068 0.00406604 0)
(0.00389739 0.00961939 0)
(2.54626e-06 -4.95017e-05 0)
(0.00020427 -0.000254716 0)
(0.000620949 -0.000466426 0)
(0.00121039 -0.000656757 0)
(0.00194135 -0.000827463 0)
(0.00278472 -0.000981926 0)
(0.0037146 -0.00112201 0)
(0.00470546 -0.00124682 0)
(0.00572972 -0.00135251 0)
(0.0067547 -0.00143096 0)
(0.00773847 -0.00146658 0)
(0.00862348 -0.00142903 0)
(0.00932688 -0.00125861 0)
(0.00972754 -0.000837874 0)
(0.00965549 5.99712e-05 0)
(0.00889915 0.00185212 0)
(0.00731414 0.00524136 0)
(0.0048739 0.0111379 0)
(9.944e-06 -8.67449e-05 0)
(0.00025898 -0.00036785 0)
(0.000740607 -0.000652359 0)
(0.00140796 -0.000908987 0)
(0.00222642 -0.00113918 0)
(0.00316387 -0.0013463 0)
(0.00419034 -0.00153155 0)
(0.00527522 -0.00169227 0)
(0.0063846 -0.00182132 0)
(0.007478 -0.0019052 0)
(0.00850423 -0.0019196 0)
(0.0093957 -0.00182056 0)
(0.0100613 -0.00152794 0)
(0.0103802 -0.000897237 0)
(0.0102042 0.000323995 0)
(0.00938683 0.00254879 0)
(0.00788856 0.00638074 0)
(0.00584367 0.0124798 0)
(1.72304e-05 -0.000137064 0)
(0.00031176 -0.000508887 0)
(0.000853005 -0.000876878 0)
(0.00158875 -0.00120907 0)
(0.0024809 -0.0015067 0)
(0.00349475 -0.00177277 0)
(0.0045966 -0.00200713 0)
(0.00575107 -0.00220449 0)
(0.00691838 -0.0023533 0)
(0.00805118 -0.00243326 0)
(0.009091 -0.00241005 0)
(0.00996411 -0.00222545 0)
(0.0105781 -0.00178084 0)
(0.0108227 -0.000912397 0)
(0.0105823 0.000640496 0)
(0.00977515 0.00326046 0)
(0.00844035 0.00743795 0)
(0.00678577 0.0136301 0)
(2.39183e-05 -0.000201351 0)
(0.000359291 -0.00067936 0)
(0.000951647 -0.00114104 0)
(0.00174302 -0.00155712 0)
(0.00269177 -0.00192899 0)
(0.00376106 -0.00225895 0)
(0.00491404 -0.00254484 0)
(0.00611126 -0.00277777 0)
(0.0073081 -0.00294074 0)
(0.00845206 -0.00300567 0)
(0.00948025 -0.00292768 0)
(0.0103175 -0.00263526 0)
(0.0108769 -0.00201547 0)
(0.0110661 -0.00089483 0)
(0.0108065 0.000979236 0)
(0.0100722 0.00394182 0)
(0.00895308 0.00837274 0)
(0.00767629 0.0145732 0)
(2.95722e-05 -0.000279819 0)
(0.000398224 -0.000879356 0)
(0.00102965 -0.00144411 0)
(0.00186027 -0.00195108 0)
(0.00284504 -0.00240247 0)
(0.00394557 -0.00279964 0)
(0.00512266 -0.00313773 0)
(0.00633395 -0.00340348 0)
(0.00753157 -0.00357363 0)
(0.0086602 -0.00361184 0)
(0.00965602 -0.00346312 0)
(0.0104471 -0.00304506 0)
(0.0109574 -0.00223607 0)
(0.011117 -0.000862975 0)
(0.0108829 0.00130594 0)
(0.0102718 0.00454987 0)
(0.00940075 0.00914985 0)
(0.00848638 0.0152923 0)
(3.35563e-05 -0.000364345 0)
(0.000423152 -0.00108805 0)
(0.0010759 -0.00175473 0)
(0.00192402 -0.00234986 0)
(0.00291974 -0.00287725 0)
(0.00402389 -0.00333737 0)
(0.00519618 -0.00372242 0)
(0.00639298 -0.00401458 0)
(0.00756528 -0.00418448 0)
(0.00865777 -0.00418841 0)
(0.009609 -0.00396339 0)
(0.0103538 -0.00342015 0)
(0.0108294 -0.00243484 0)
(0.0109874 -0.000842521 0)
(0.0108125 0.00156171 0)
(0.0103484 0.00500473 0)
(0.00972042 0.00969139 0)
(0.00912323 0.0157321 0)
(3.66099e-05 -0.00045748 0)
(0.000436842 -0.00131369 0)
(0.00109568 -0.00208605 0)
(0.00194286 -0.00277102 0)
(0.00292834 -0.00337478 0)
(0.00401289 -0.003897 0)
(0.00515629 -0.00432672 0)
(0.00631499 -0.00464134 0)
(0.00744074 -0.00480549 0)
(0.00848042 -0.00476878 0)
(0.00937753 -0.00446199 0)
(0.0100761 -0.00379213 0)
(0.0105281 -0.00263772 0)
(0.0107049 -0.000847341 0)
(0.0106139 0.00175374 0)
(0.010315 0.00534288 0)
(0.00993201 0.010062 0)
(0.00963407 0.015966 0)
(3.86019e-05 -0.000572708 0)
(0.000435541 -0.0015902 0)
(0.00107849 -0.00248649 0)
(0.00189727 -0.00327472 0)
(0.00284051 -0.0039648 0)
(0.00387013 -0.00455565 0)
(0.00494763 -0.00503268 0)
(0.00603163 -0.00536789 0)
(0.00707719 -0.00551955 0)
(0.00803651 -0.00543105 0)
(0.00886157 -0.00502872 0)
(0.00950893 -0.00421953 0)
(0.00994736 -0.00289 0)
(0.010168 -0.000909031 0)
(0.010196 0.0018623 0)
(0.0100999 0.00555107 0)
(0.00999305 0.0102432 0)
(0.010016 0.0159514 0)
(3.82638e-05 -0.000708748 0)
(0.000409045 -0.00191469 0)
(0.00100092 -0.00295052 0)
(0.00174806 -0.00385213 0)
(0.00260057 -0.00463524 0)
(0.00352354 -0.0052983 0)
(0.00448277 -0.00582299 0)
(0.00544209 -0.00617584 0)
(0.00636332 -0.0063093 0)
(0.00720775 -0.00616211 0)
(0.00793936 -0.00565926 0)
(0.00852981 -0.00471247 0)
(0.00896508 -0.00322222 0)
(0.00925302 -0.0010833 0)
(0.00943025 0.00180485 0)
(0.00956532 0.00552229 0)
(0.00975501 0.0101091 0)
(0.0101106 0.0155479 0)
(3.39523e-05 -0.000857199 0)
(0.000344584 -0.00226699 0)
(0.000833786 -0.00344905 0)
(0.00144645 -0.0044661 0)
(0.00213948 -0.00534205 0)
(0.00288446 -0.00607576 0)
(0.00365495 -0.00664579 0)
(0.00442382 -0.00701416 0)
(0.0051637 -0.00712919 0)
(0.00584871 -0.0069278 0)
(0.00645766 -0.00633774 0)
(0.00697823 -0.00528042 0)
(0.00741185 -0.00367505 0)
(0.00777817 -0.00144499 0)
(0.00811791 0.00147344 0)
(0.0084924 0.00512032 0)
(0.00897845 0.00950121 0)
(0.00965973 0.0145796 0)
(2.39163e-05 -0.000996128 0)
(0.000228751 -0.00259527 0)
(0.000546785 -0.00390958 0)
(0.000941854 -0.00502815 0)
(0.00138559 -0.0059846 0)
(0.00186076 -0.00677949 0)
(0.00235272 -0.00738994 0)
(0.00284746 -0.00777568 0)
(0.00333216 -0.0078839 0)
(0.00379671 -0.00765341 0)
(0.00423612 -0.00701883 0)
(0.00465326 -0.00591492 0)
(0.00506159 -0.00428155 0)
(0.00548699 -0.00206936 0)
(0.00596801 0.000754084 0)
(0.00655396 0.00419836 0)
(0.00730103 0.00824605 0)
(0.00826852 0.0128505 0)
(6.71773e-06 -0.00108162 0)
(5.27724e-05 -0.00279661 0)
(0.000121174 -0.00418977 0)
(0.000203412 -0.00536765 0)
(0.000294831 -0.00637194 0)
(0.000394459 -0.00720608 0)
(0.000503033 -0.0078483 0)
(0.000622748 -0.0082595 0)
(0.000757752 -0.00838954 0)
(0.000915029 -0.0081829 0)
(0.00110553 -0.00758385 0)
(0.00134531 -0.00654146 0)
(0.00165632 -0.00501435 0)
(0.00206649 -0.00297498 0)
(0.00260873 -0.000413264 0)
(0.00331876 0.00266084 0)
(0.0042338 0.00621706 0)
(0.00539256 0.0102062 0)
(-1.83736e-05 -0.00104089 0)
(-0.000174672 -0.00270075 0)
(-0.000420109 -0.00405341 0)
(-0.000729484 -0.00520084 0)
(-0.0010781 -0.00618513 0)
(-0.00144797 -0.00701237 0)
(-0.00182174 -0.00766488 0)
(-0.00218047 -0.008109 0)
(-0.00250308 -0.00830163 0)
(-0.00276635 -0.00819608 0)
(-0.00294494 -0.0077474 0)
(-0.00301176 -0.00691715 0)
(-0.00293845 -0.00567735 0)
(-0.00269635 -0.00401346 0)
(-0.0022578 -0.00192625 0)
(-0.00159745 0.000567658 0)
(-0.000693058 0.00343586 0)
(0.000477294 0.00663253 0)
(-3.53603e-05 -0.000855823 0)
(-0.000343672 -0.00225884 0)
(-0.000829422 -0.00342751 0)
(-0.00144363 -0.00443333 0)
(-0.00214203 -0.00530785 0)
(-0.00289486 -0.0060571 0)
(-0.00367437 -0.00666844 0)
(-0.00445105 -0.00711589 0)
(-0.00519311 -0.00736531 0)
(-0.00586691 -0.00737932 0)
(-0.00643775 -0.00712195 0)
(-0.00687087 -0.00656276 0)
(-0.00713281 -0.00568005 0)
(-0.00719273 -0.00446326 0)
(-0.00702384 -0.00291418 0)
(-0.00660449 -0.00104704 0)
(-0.00591752 0.00111216 0)
(-0.00494892 0.00352708 0)
(-4.1935e-05 -0.000648944 0)
(-0.000420492 -0.0017673 0)
(-0.00102364 -0.00272848 0)
(-0.00179303 -0.00356839 0)
(-0.00267738 -0.00430673 0)
(-0.00364262 -0.00494886 0)
(-0.0046568 -0.00548669 0)
(-0.00568615 -0.00590129 0)
(-0.00669456 -0.00616661 0)
(-0.00764407 -0.00625335 0)
(-0.00849587 -0.00613277 0)
(-0.00921163 -0.00578007 0)
(-0.00975504 -0.00517719 0)
(-0.0100934 -0.00431472 0)
(-0.0101992 -0.00319288 0)
(-0.010051 -0.00182165 0)
(-0.00963303 -0.000220076 0)
(-0.00893353 0.00158464 0)
(-4.07632e-05 -0.000449757 0)
(-0.00043019 -0.00128991 0)
(-0.00106375 -0.00204146 0)
(-0.00188321 -0.00270747 0)
(-0.00283774 -0.00329763 0)
(-0.00389295 -0.00381691 0)
(-0.00501617 -0.00426117 0)
(-0.00617314 -0.00461781 0)
(-0.0073274 -0.00486805 0)
(-0.00844058 -0.0049899 0)
(-0.00947333 -0.00496109 0)
(-0.0103866 -0.00476179 0)
(-0.0111433 -0.00437688 0)
(-0.0117097 -0.00379756 0)
(-0.0120575 -0.00302219 0)
(-0.0121643 -0.00205651 0)
(-0.0120137 -0.000913178 0)
(-0.0115946 0.000388562 0)
(-3.39437e-05 -0.000283826 0)
(-0.000390806 -0.000883502 0)
(-0.000991267 -0.00144507 0)
(-0.00178282 -0.0019478 0)
(-0.00271906 -0.00239505 0)
(-0.00376716 -0.00279168 0)
(-0.00489586 -0.00313666 0)
(-0.00607285 -0.0034224 0)
(-0.00726406 -0.00363614 0)
(-0.00843351 -0.00376213 0)
(-0.00954402 -0.00378379 0)
(-0.0105583 -0.00368589 0)
(-0.0114404 -0.00345619 0)
(-0.0121573 -0.00308681 0)
(-0.0126803 -0.00257497 0)
(-0.0129865 -0.00192318 0)
(-0.0130585 -0.00113907 0)
(-0.0128847 -0.000235299 0)
(-2.36948e-05 -0.000160006 0)
(-0.000321638 -0.000567779 0)
(-0.000849503 -0.000968344 0)
(-0.00156263 -0.00132854 0)
(-0.00242021 -0.00164891 0)
(-0.00339182 -0.00193431 0)
(-0.00444884 -0.00218574 0)
(-0.00556249 -0.00239915 0)
(-0.00670274 -0.00256643 0)
(-0.00783787 -0.00267683 0)
(-0.00893474 -0.00271864 0)
(-0.00995965 -0.00268069 0)
(-0.0108796 -0.00255365 0)
(-0.0116637 -0.00233099 0)
(-0.0122845 -0.00200959 0)
(-0.012719 -0.00158998 0)
(-0.0129497 -0.00107626 0)
(-0.0129645 -0.000476153 0)
(-1.20799e-05 -7.68734e-05 0)
(-0.000239769 -0.000340137 0)
(-0.000675629 -0.000610726 0)
(-0.00128239 -0.00085349 0)
(-0.00202467 -0.00106856 0)
(-0.00287485 -0.00126055 0)
(-0.00380781 -0.00143139 0)
(-0.00479919 -0.00157931 0)
(-0.00582395 -0.00169945 0)
(-0.00685559 -0.00178494 0)
(-0.00786616 -0.00182795 0)
(-0.00882678 -0.00182083 0)
(-0.00970872 -0.00175691 0)
(-0.0104845 -0.00163124 0)
(-0.011129 -0.00144102 0)
(-0.0116208 -0.0011858 0)
(-0.0119428 -0.000867458 0)
(-0.012083 -0.00049027 0)
(-9.19871e-07 -2.76383e-05 0)
(-0.000158774 -0.000187002 0)
(-0.000497823 -0.000357054 0)
(-0.000986569 -0.000508231 0)
(-0.00159456 -0.000641247 0)
(-0.00229753 -0.000760028 0)
(-0.00307448 -0.000866603 0)
(-0.00390593 -0.000960433 0)
(-0.00477214 -0.00103884 0)
(-0.00565222 -0.00109773 0)
(-0.00652386 -0.00113227 0)
(-0.00736368 -0.00113762 0)
(-0.00814798 -0.00110942 0)
(-0.00885364 -0.00104428 0)
(-0.00945918 -0.000940045 0)
(-0.00994561 -0.000795989 0)
(-0.0102972 -0.000612781 0)
(-0.0105032 -0.000392467 0)
(8.15947e-06 -3.48003e-06 0)
(-8.85401e-05 -9.12967e-05 0)
(-0.0003352 -0.000187279 0)
(-0.000704687 -0.000271298 0)
(-0.00117145 -0.000344565 0)
(-0.00171532 -0.000409952 0)
(-0.00231991 -0.00046905 0)
(-0.00297062 -0.000521846 0)
(-0.00365299 -0.000567018 0)
(-0.00435161 -0.000602371 0)
(-0.00504985 -0.00062525 0)
(-0.00573001 -0.00063291 0)
(-0.00637381 -0.000622832 0)
(-0.00696311 -0.000592971 0)
(-0.00748071 -0.00054193 0)
(-0.00791103 -0.00046907 0)
(-0.00824078 -0.000374514 0)
(-0.00846078 -0.000259045 0)
(1.36222e-05 4.48663e-06 0)
(-3.55842e-05 -3.6798e-05 0)
(-0.000199057 -8.2068e-05 0)
(-0.000453896 -0.000120865 0)
(-0.000780134 -0.000154339 0)
(-0.00116255 -0.000184181 0)
(-0.00158955 -0.000211341 0)
(-0.0020513 -0.000235933 0)
(-0.00253817 -0.000257413 0)
(-0.0030399 -0.0002748 0)
(-0.00354522 -0.000286873 0)
(-0.00404197 -0.000292344 0)
(-0.00451734 -0.000290005 0)
(-0.00495845 -0.000278846 0)
(-0.00535282 -0.000258136 0)
(-0.00568895 -0.000227479 0)
(-0.0059567 -0.000186821 0)
(-0.00614907 -0.00013633 0)
(1.38976e-05 4.23741e-06 0)
(-3.60095e-06 -1.00926e-05 0)
(-9.46141e-05 -2.51752e-05 0)
(-0.000242166 -3.77288e-05 0)
(-0.000433103 -4.84075e-05 0)
(-0.000657894 -5.79126e-05 0)
(-0.000909756 -6.66318e-05 0)
(-0.00118317 -7.46425e-05 0)
(-0.00147283 -8.179e-05 0)
(-0.00177303 -8.77658e-05 0)
(-0.00207741 -9.21754e-05 0)
(-0.00237899 -9.45947e-05 0)
(-0.00267029 -9.4618e-05 0)
(-0.00294366 -9.18965e-05 0)
(-0.00319157 -8.61659e-05 0)
(-0.00340697 -7.72642e-05 0)
(-0.00358343 -6.51261e-05 0)
(-0.0037165 -4.96996e-05 0)
(7.47665e-06 1.52434e-06 0)
(6.01893e-06 -5.02119e-07 0)
(-2.26854e-05 -1.75719e-06 0)
(-7.11918e-05 -2.73524e-06 0)
(-0.000134558 -3.53294e-06 0)
(-0.000209413 -4.24075e-06 0)
(-0.000293529 -4.90248e-06 0)
(-0.000385187 -5.53066e-06 0)
(-0.000482757 -6.11632e-06 0)
(-0.000584468 -6.63679e-06 0)
(-0.00068831 -7.06117e-06 0)
(-0.000792016 -7.35534e-06 0)
(-0.000893121 -7.48528e-06 0)
(-0.000989053 -7.42065e-06 0)
(-0.00107724 -7.13701e-06 0)
(-0.00115523 -6.62092e-06 0)
(-0.00122069 -5.84062e-06 0)
(-0.00127201 -4.77326e-06 0)
(1.07581e-05 -2.50908e-05 6.3042e-24)
(7.24019e-05 -5.6647e-05 -8.32465e-24)
(0.000169467 -7.36867e-05 0)
(0.000284804 -7.95286e-05 0)
(0.000398137 -7.78373e-05 0)
(0.000495336 -7.11533e-05 7.01666e-24)
(0.000566809 -6.13688e-05 0)
(0.000605949 -4.99139e-05 0)
(0.000608347 -3.78039e-05 0)
(0.000571298 -2.56878e-05 0)
(0.00049333 -1.39515e-05 -1.15469e-24)
(0.000373763 -2.77748e-06 0)
(0.000212394 7.80044e-06 0)
(9.24757e-06 1.78491e-05 0)
(-0.00023561 2.74999e-05 0)
(-0.000522191 3.69206e-05 7.81424e-24)
(-0.000850645 4.62926e-05 0)
(-0.00122128 5.57921e-05 0)
(-0.00163455 6.55757e-05 0)
(-0.00209096 7.57702e-05 0)
(-0.00259103 8.64657e-05 0)
(-0.00313516 9.77101e-05 0)
(-0.00372352 0.000109506 0)
(-0.00435589 0.000121811 2.55603e-23)
(-0.00503159 0.000134534 -2.77917e-23)
(-0.0057493 0.000147539 2.99471e-23)
(-0.00650696 0.000160647 3.19921e-23)
(-0.00730165 0.000173637 0)
(-0.00812953 0.00018625 0)
(-0.00898573 0.000198193 -3.70692e-23)
(-0.00986435 0.000209146 -3.82609e-23)
(-0.0107584 0.000218766 0)
(-0.0116598 0.000226697 0)
(-0.0125596 0.000232581 -3.96583e-23)
(-0.0134477 0.000236066 0)
(-0.0143134 0.000236819 0)
(-0.0151452 0.000234544 3.6791e-23)
(-0.0159311 0.000228991 0)
(-0.0166591 0.00021997 3.19784e-23)
(-0.0173168 0.000207366 5.72494e-23)
(-0.0178924 0.00019115 0)
(-0.0183745 0.000171383 0)
(-0.0187523 0.000148226 0)
(-0.0190163 0.000121934 0)
(-0.0191584 9.28796e-05 0)
(-0.0191715 6.15523e-05 -8.8984e-24)
(-0.0190506 2.83209e-05 -2.35717e-23)
(-0.0187926 -6.2093e-06 -3.89426e-23)
(-0.0183962 -4.13729e-05 0)
(-0.0178623 -7.65211e-05 7.10424e-23)
(-0.0171936 -0.000111017 0)
(-0.0163948 -0.000144247 -1.03577e-22)
(-0.0154723 -0.000175644 -1.19457e-22)
(-0.0144342 -0.000204703 0)
(-0.0132898 -0.000231001 0)
(-0.0120498 -0.000254202 0)
(-0.0107255 -0.000274067 -1.75221e-22)
(-0.00932891 -0.00029045 0)
(-0.00787241 -0.000303297 0)
(-0.00636843 -0.000312629 0)
(-0.00482932 -0.000318532 0)
(-0.00326721 -0.000321134 0)
(-0.00169394 -0.000320559 0)
(-0.000120997 -0.000316865 0)
(0.00144059 -0.000310109 0)
(0.00298013 -0.000300512 2.07551e-22)
(0.00448691 -0.00028835 0)
(0.00595031 -0.000273787 0)
(0.00735975 -0.000256905 -1.81517e-22)
(0.0087045 -0.000237755 -1.69503e-22)
(0.00997356 -0.000216378 0)
(0.0111557 -0.000192825 1.41345e-22)
(0.0122393 -0.000167176 -1.25564e-22)
(0.0132127 -0.000139569 0)
(0.0140644 -0.000110217 9.16588e-23)
(0.0147832 -7.94228e-05 0)
(0.0153587 -4.75965e-05 0)
(0.0157818 -1.52692e-05 -3.86158e-23)
(0.0160453 1.68524e-05 0)
(0.0161438 4.80217e-05 4.87378e-24)
(0.0160756 7.82199e-05 0)
(0.0158424 0.000105993 2.51464e-23)
(0.0154486 0.000130629 3.82015e-23)
(0.0149033 0.00015156 4.97225e-23)
(0.0142189 0.000168272 1.19178e-22)
(0.013412 0.000180394 -1.35461e-22)
(0.012502 0.000187745 0)
(0.0115112 0.000190356 0)
(0.0104633 0.000188463 0)
(0.00938309 0.000182494 -1.66831e-22)
(0.00829476 0.000173028 -1.67238e-22)
(0.00722138 0.000160756 1.65324e-22)
(0.00618379 0.000146421 0)
(0.00519988 0.000130765 -1.56142e-22)
(0.0042841 0.000114482 -1.49682e-22)
(0.0034472 9.81821e-05 -1.4248e-22)
(0.00269621 8.23723e-05 0)
(0.0020345 6.74579e-05 0)
(0.0014621 5.37571e-05 0)
(0.000976002 4.15203e-05 -1.123e-22)
(0.00057047 3.09452e-05 0)
(0.000237503 2.21788e-05 0)
(-3.26732e-05 1.53049e-05 9.38646e-23)
(-0.000250962 1.03233e-05 0)
(-0.000428634 7.12729e-06 0)
(-0.000576518 5.50084e-06 8.15564e-23)
(-0.000704251 5.13833e-06 0)
(-0.000819694 5.67618e-06 0)
(-0.000928585 6.73721e-06 -7.46565e-23)
(-0.00103446 7.97431e-06 -7.31303e-23)
(-0.00113884 9.10303e-06 0)
(-0.00124155 9.9187e-06 7.06296e-23)
(-0.00134122 1.02989e-05 0)
(-0.00143572 1.01947e-05 -6.83275e-23)
(-0.00152262 9.61568e-06 0)
(-0.00159948 8.61336e-06 -6.58068e-23)
(-0.00166418 7.26566e-06 -6.44045e-23)
(-0.00171503 5.66417e-06 0)
(-0.00175093 3.90449e-06 0)
(-0.00177135 2.08244e-06 0)
(-0.00177634 2.91358e-07 0)
(-0.00176651 -1.42204e-06 0)
(-0.00174292 -2.98097e-06 0)
(-0.00170702 -4.33854e-06 0)
(-0.00166054 -5.46542e-06 -5.10531e-23)
(-0.00160537 -6.34569e-06 4.94553e-23)
(-0.00154352 -6.97628e-06 0)
(-0.00147697 -7.36547e-06 0)
(-0.00140765 -7.5308e-06 0)
(-0.00133732 -7.49675e-06 0)
(-0.00126757 -7.29233e-06 8.59177e-23)
(-0.00119974 -6.94891e-06 0)
(-0.00113497 -6.49824e-06 -8.22352e-23)
(-0.00107413 -5.97081e-06 8.06836e-23)
(-0.00101786 -5.39462e-06 0)
(-0.000966591 -4.7944e-06 0)
(-0.000920557 -4.19106e-06 0)
(-0.00087982 -3.60158e-06 -7.59383e-23)
(-0.000844305 -3.03913e-06 -7.5008e-23)
(-0.000813825 -2.51325e-06 0)
(-0.000788106 -2.03035e-06 -7.3312e-23)
(-0.000766818 -1.59412e-06 -7.25122e-23)
(-0.000749586 -1.20599e-06 7.1725e-23)
(-0.000736019 -8.65649e-07 0)
(-0.000725716 -5.71456e-07 0)
(-0.000718284 -3.20794e-07 6.93296e-23)
(-0.000713342 -1.10358e-07 0)
(-0.00071053 6.36103e-08 0)
(-0.00070951 2.02171e-07 0)
(-0.000709988 2.9599e-07 0)
(-0.000711681 3.87263e-07 -6.48315e-23)
(-0.000714329 4.53396e-07 -6.38285e-23)
(-0.00071772 4.97969e-07 0)
(-0.000721662 5.2555e-07 -6.17168e-23)
(-0.000725989 5.39498e-07 0)
(-0.000730559 5.42515e-07 0)
(-0.000735256 5.37003e-07 -5.83046e-23)
(-0.000739986 5.25154e-07 0)
(-0.000744675 5.08979e-07 -5.58886e-23)
(-0.000749271 4.90318e-07 0)
(-0.000753741 4.70826e-07 0)
(-0.000758065 4.51936e-07 -5.20946e-23)
(-0.000762241 4.34786e-07 0)
(-0.000766273 4.20107e-07 -4.94722e-23)
(-0.000770172 4.08083e-07 0)
(-0.000773943 3.9818e-07 0)
(-0.000777579 3.88946e-07 0)
(-0.000781047 3.77827e-07 4.40271e-23)
(-0.000784274 3.60846e-07 0)
(-0.000787131 3.31408e-07 -4.11901e-23)
(-0.000789427 2.82497e-07 0)
(-0.000790862 2.32313e-07 0)
(-0.000791027 1.43006e-07 0)
(-0.000789399 -7.87403e-10 0)
(-0.000785272 -2.04938e-07 0)
(-0.000777704 -4.91522e-07 0)
(-0.000765275 -9.16419e-07 0)
(-0.000745311 -1.98862e-06 5.7677e-23)
(-0.000719806 -1.97257e-06 0)
(-0.000636539 -1.28546e-05 0)
(1.58887e-05 -0.000140067 -2.11361e-23)
(0.000114444 -0.000316319 2.82139e-23)
(0.000250238 -0.000402726 0)
(0.000393383 -0.000415444 -1.87026e-23)
(0.000511003 -0.000371095 0)
(0.000578611 -0.000284654 -7.53117e-24)
(0.000578105 -0.000168654 1.48455e-23)
(0.00049591 -3.31108e-05 1.28834e-23)
(0.000322048 0.000114326 0)
(4.94024e-05 0.000268071 8.08314e-24)
(-0.000326943 0.000424249 1.24385e-24)
(-0.000810271 0.000580381 0)
(-0.00140275 0.000735072 0)
(-0.00210585 0.000887723 0)
(-0.00292059 0.00103828 0)
(-0.00384775 0.001187 -8.39199e-24)
(-0.004888 0.00133431 0)
(-0.00604183 0.00148057 2.01036e-23)
(-0.00730952 0.00162601 0)
(-0.00869101 0.00177062 0)
(-0.0101857 0.00191402 -3.33044e-23)
(-0.0117921 0.00205549 0)
(-0.0135077 0.0021939 4.24741e-23)
(-0.0153287 0.00232771 -2.72114e-23)
(-0.0172498 0.00245501 2.95408e-23)
(-0.0192635 0.00257355 -3.17798e-23)
(-0.0213605 0.00268076 -3.38927e-23)
(-0.0235293 0.00277388 0)
(-0.0257559 0.00284997 0)
(-0.0280239 0.00290604 3.90678e-23)
(-0.0303147 0.00293913 -3.34329e-23)
(-0.0326071 0.00294639 0)
(-0.0348783 0.00292523 0)
(-0.0371033 0.00287337 4.15334e-23)
(-0.0392557 0.00278896 0)
(-0.0413082 0.00267069 0)
(-0.0432328 0.00251783 -3.84032e-23)
(-0.0450013 0.00233036 0)
(-0.0465862 0.00210897 3.15011e-23)
(-0.0479609 0.00185509 -5.96807e-23)
(-0.0491004 0.00157092 0)
(-0.049982 0.00125939 0)
(-0.0505855 0.000924095 -6.46116e-23)
(-0.0508939 0.000569221 -4.18796e-23)
(-0.0508936 0.000199459 -1.67334e-23)
(-0.0505748 -0.000179994 -1.30535e-24)
(-0.0499319 -0.000563882 2.47147e-23)
(-0.0489633 -0.000946641 1.1178e-22)
(-0.0476716 -0.00132277 -1.03164e-22)
(-0.0460634 -0.00168698 -7.49155e-23)
(-0.0441494 -0.00203436 0)
(-0.0419434 -0.00236044 1.0981e-22)
(-0.0394628 -0.00266135 -1.10558e-22)
(-0.0367276 -0.00293388 0)
(-0.0337602 -0.00317553 0)
(-0.0305847 -0.00338456 0)
(-0.0272266 -0.00355995 1.89161e-22)
(-0.023712 -0.00370138 0)
(-0.0200677 -0.00380915 -4.0617e-22)
(-0.0163202 -0.00388407 0)
(-0.0124955 -0.00392733 -4.39845e-22)
(-0.00861917 -0.00394036 0)
(-0.00471606 -0.00392467 4.57821e-22)
(-0.000810367 -0.00388163 0)
(0.00307439 -0.00381244 -4.53659e-22)
(0.00691547 -0.00371829 2.10958e-22)
(0.0106898 -0.00360026 0)
(0.0143744 -0.00345907 4.05441e-22)
(0.0179461 -0.00329503 1.99887e-22)
(0.0213811 -0.00310816 1.86178e-22)
(0.0246543 -0.00289833 0)
(0.02774 -0.0026654 1.39182e-22)
(0.0306109 -0.00240942 1.37047e-22)
(0.033239 -0.00213078 0)
(0.0355957 -0.00183044 -9.97567e-23)
(0.0376521 -0.00151014 1.49852e-22)
(0.0393803 -0.00117247 0)
(0.0407539 -0.0008211 4.19533e-23)
(0.0417495 -0.00046079 0)
(0.0423481 -9.73577e-05 -1.04646e-23)
(0.0425358 0.000263003 0)
(0.0423055 0.000612529 -8.42492e-23)
(0.0416593 0.000943377 -4.1612e-23)
(0.0406075 0.00124778 5.29645e-23)
(0.0391705 0.00151832 1.24323e-22)
(0.0373786 0.00174834 -1.39217e-22)
(0.0352716 0.0019325 0)
(0.0328981 0.00206709 0)
(0.0303137 0.00215034 0)
(0.0275791 0.00218261 5.3567e-22)
(0.0247574 0.00216631 1.85968e-22)
(0.0219118 0.00210578 -1.84522e-22)
(0.0191021 0.00200692 0)
(0.0163832 0.00187678 -1.54542e-22)
(0.0138022 0.00172299 1.68938e-22)
(0.0113973 0.00155336 1.61378e-22)
(0.00919674 0.0013754 0)
(0.00721871 0.00119608 0)
(0.00547137 0.00102165 0)
(0.00395347 0.00085751 1.28734e-22)
(0.00265531 0.000708174 0)
(0.00155992 0.000577123 -2.1924e-22)
(0.0006446 0.000466657 -3.16761e-22)
(-0.000117168 0.000377724 1.98888e-22)
(-0.000753644 0.00030982 0)
(-0.00129258 0.00026106 8.92701e-23)
(-0.0017592 0.000228447 0)
(-0.00217463 0.000208262 1.73234e-22)
(-0.00255494 0.000196526 -8.30497e-23)
(-0.00291082 0.00018946 -8.16733e-23)
(-0.00324792 0.000183843 0)
(-0.00356765 0.000177222 -2.43129e-22)
(-0.00386819 0.000167978 1.58971e-22)
(-0.00414567 0.000155277 7.92519e-23)
(-0.00439522 0.000138942 0)
(-0.00461184 0.000119297 7.64081e-23)
(-0.00479108 9.70048e-05 2.23451e-22)
(-0.00492954 7.29257e-05 0)
(-0.00502511 4.8003e-05 1.42194e-22)
(-0.00507713 2.31752e-05 1.38687e-22)
(-0.00508634 -6.85524e-07 1.35036e-22)
(-0.00505479 -2.28589e-05 0)
(-0.00498568 -4.27277e-05 0)
(-0.00488314 -5.98475e-05 0)
(-0.00475195 -7.39382e-05 -6.04544e-23)
(-0.00459734 -8.4875e-05 -5.78338e-23)
(-0.00442472 -9.26739e-05 0)
(-0.00423945 -9.74725e-05 -1.10039e-22)
(-0.00404669 -9.95061e-05 -1.07094e-22)
(-0.00385117 -9.90821e-05 0)
(-0.00365716 -9.65551e-05 -1.00906e-22)
(-0.0034683 -9.23029e-05 -1.99335e-22)
(-0.00328763 -8.67054e-05 9.67472e-23)
(-0.00311753 -8.01277e-05 9.66753e-23)
(-0.0029598 -7.29062e-05 0)
(-0.00281561 -6.53401e-05 0)
(-0.00268566 -5.76856e-05 0)
(-0.00257017 -5.01538e-05 8.97047e-23)
(-0.00246898 -4.29114e-05 -8.96039e-23)
(-0.00238165 -3.60833e-05 -1.76218e-22)
(-0.00230747 -2.9757e-05 8.67998e-23)
(-0.00224558 -2.39867e-05 -8.64608e-23)
(-0.00219499 -1.87998e-05 -8.50441e-23)
(-0.00215467 -1.42009e-05 0)
(-0.00212353 -1.01776e-05 0)
(-0.00210052 -6.70461e-06 8.25628e-23)
(-0.00208458 -3.74766e-06 0)
(-0.00207475 -1.26676e-06 0)
(-0.0020701 7.78627e-07 -1.58923e-22)
(-0.00206977 2.42025e-06 0)
(-0.002073 3.73906e-06 -7.72494e-23)
(-0.00207909 4.75515e-06 7.61438e-23)
(-0.00208741 5.50748e-06 0)
(-0.00209743 6.03551e-06 -7.36255e-23)
(-0.00210867 6.37536e-06 0)
(-0.00212072 6.56013e-06 0)
(-0.00213326 6.6203e-06 6.97796e-23)
(-0.002146 6.58387e-06 -1.36672e-22)
(-0.00215873 6.47645e-06 6.69746e-23)
(-0.00217129 6.32118e-06 0)
(-0.00218356 6.13841e-06 0)
(-0.00219549 5.94513e-06 -6.2442e-23)
(-0.00220702 5.75403e-06 0)
(-0.00221817 5.57214e-06 -5.93772e-23)
(-0.00222892 5.39928e-06 0)
(-0.00223926 5.22611e-06 0)
(-0.00224914 5.0323e-06 0)
(-0.00225842 4.78466e-06 -5.30684e-23)
(-0.00226687 4.43569e-06 0)
(-0.00227409 3.92162e-06 4.97135e-23)
(-0.00227948 3.1628e-06 0)
(-0.00228219 2.10482e-06 0)
(-0.00228109 5.95344e-07 -8.88866e-23)
(-0.00227468 -1.50282e-06 8.52604e-23)
(-0.00226099 -4.35699e-06 0)
(-0.00223749 -8.24261e-06 0)
(-0.00220061 -1.371e-05 0)
(-0.00214449 -2.21467e-05 -2.10727e-22)
(-0.00207118 -3.54464e-05 0)
(-0.00190162 -6.81132e-05 1.24931e-22)
(1.27592e-05 -0.000258635 -2.88196e-24)
(7.86499e-05 -0.000548842 -4.20839e-23)
(0.000144762 -0.000652137 0)
(0.000178595 -0.000606704 4.03689e-23)
(0.000147042 -0.000445882 0)
(2.47884e-05 -0.000198167 0)
(-0.000207673 0.000112706 2.81458e-24)
(-0.000565612 0.000467527 -1.28753e-23)
(-0.00106094 0.000851207 -1.36639e-23)
(-0.0017028 0.00125232 -8.05416e-24)
(-0.0024981 0.00166258 0)
(-0.00345205 0.00207628 0)
(-0.00456852 0.00248972 3.04835e-24)
(-0.0058504 0.00290075 -1.80474e-25)
(-0.00729976 0.00330821 6.81983e-24)
(-0.00891798 0.00371157 0)
(-0.0107058 0.00411046 2.11458e-23)
(-0.012663 0.00450443 -1.98219e-23)
(-0.0147886 0.00489261 0)
(-0.0170804 0.00527351 4.50418e-23)
(-0.0195347 0.00564489 3.26666e-23)
(-0.022146 0.00600366 -6.22712e-23)
(-0.0249067 0.00634581 -4.15043e-23)
(-0.0278067 0.0066665 0)
(-0.0308333 0.00696012 8.90227e-23)
(-0.0339706 0.00722039 9.7849e-23)
(-0.0371998 0.00744056 0)
(-0.0404987 0.0076136 1.14673e-22)
(-0.0438421 0.00773243 0)
(-0.0472015 0.00779014 1.29407e-22)
(-0.0505459 0.00778028 7.09737e-23)
(-0.0538416 0.00769709 0)
(-0.057053 0.00753572 0)
(-0.060143 0.00729251 0)
(-0.0630736 0.0069651 0)
(-0.0658068 0.0065527 0)
(-0.0683051 0.00605612 0)
(-0.0705322 0.00547788 1.379e-22)
(-0.0724538 0.00482222 -1.92229e-22)
(-0.0740384 0.00409506 0)
(-0.0752574 0.0033039 0)
(-0.0760865 0.00245767 0)
(-0.0765055 0.0015665 -1.16472e-23)
(-0.0764986 0.000641552 4.02331e-23)
(-0.0760551 -0.000305167 4.60096e-23)
(-0.0751697 -0.00126126 5.64503e-24)
(-0.0738421 -0.00221405 2.2815e-23)
(-0.0720767 -0.00315117 -6.81866e-23)
(-0.069883 -0.0040607 1.68424e-23)
(-0.067275 -0.00493153 -1.14094e-22)
(-0.0642709 -0.00575356 0)
(-0.0608926 -0.00651791 -1.78993e-22)
(-0.0571654 -0.00721713 1.83918e-23)
(-0.0531173 -0.00784529 0)
(-0.0487782 -0.00839808 0)
(-0.04418 -0.00887274 3.03307e-22)
(-0.0393551 -0.00926808 0)
(-0.0343369 -0.00958429 0)
(-0.0291582 -0.00982279 -3.58392e-22)
(-0.0238518 -0.00998598 -7.93873e-22)
(-0.0184495 -0.010077 4.32223e-22)
(-0.0129822 -0.0100993 0)
(-0.00747965 -0.0100567 -4.52154e-22)
(-0.00197095 -0.00995244 0)
(0.00351554 -0.00978953 -4.10832e-22)
(0.008953 -0.00957027 -4.36694e-22)
(0.0143134 -0.00929636 8.02236e-22)
(0.0195687 -0.00896881 3.62862e-22)
(0.0246903 -0.00858777 0)
(0.0296484 -0.00815269 -6.6241e-22)
(0.0344114 -0.00766257 0)
(0.0389457 -0.00711629 -8.28765e-22)
(0.0432157 -0.00651294 -4.75614e-22)
(0.0471835 -0.00585229 -4.06653e-22)
(0.0508095 -0.00513526 3.35878e-22)
(0.0540526 -0.00436434 -4.09883e-22)
(0.0568715 -0.00354403 0)
(0.0592254 -0.00268118 0)
(0.0610755 -0.00178523 5.48981e-23)