/*--------------------------------*- C++ -*----------------------------------*\
  =========                 |
  \\      /  F ield         | OpenFOAM: The Open Source CFD Toolbox
   \\    /   O peration     | Website:  https://openfoam.org
    \\  /    A nd           | Version:  8
     \\/     M anipulation  |
\*---------------------------------------------------------------------------*/
FoamFile
{
    version     2.0;
    format      ascii;
    class       volScalarField;
    location    "0.44";
    object      p;
}
// * * * * * * * * * * * * * * * * * * * * * * * * * * * * * * * * * * * * * //

dimensions      [0 2 -2 0 0 0 0];

internalField   nonuniform List<scalar> 
12225
(
-0.0175345
-0.0174842
-0.0174325
-0.0173867
-0.0173519
-0.0173292
-0.0173213
-0.0173335
-0.0173736
-0.0174508
-0.0175756
-0.0177592
-0.0180153
-0.0183671
-0.0188623
-0.0196084
-0.0209331
-0.0243638
-0.0175338
-0.0174884
-0.0174409
-0.0173988
-0.0173677
-0.0173493
-0.0173467
-0.0173651
-0.0174117
-0.0174955
-0.0176259
-0.0178137
-0.0180716
-0.018421
-0.0189021
-0.0195988
-0.0206914
-0.0229857
-0.0175351
-0.0174941
-0.0174513
-0.0174134
-0.0173868
-0.0173735
-0.0173771
-0.0174025
-0.0174566
-0.0175474
-0.0176836
-0.0178747
-0.0181319
-0.0184725
-0.0189255
-0.0195421
-0.0203606
-0.0217666
-0.0175389
-0.0175008
-0.0174619
-0.017428
-0.0174057
-0.0173973
-0.0174067
-0.0174385
-0.0174991
-0.0175958
-0.0177361
-0.0179278
-0.0181798
-0.0185035
-0.0189148
-0.019434
-0.0200285
-0.0208783
-0.0175451
-0.0175085
-0.0174727
-0.0174426
-0.0174243
-0.0174207
-0.0174354
-0.017473
-0.0175392
-0.0176404
-0.017783
-0.017973
-0.0182158
-0.0185166
-0.0188786
-0.0192988
-0.01972
-0.020218
-0.0175535
-0.0175173
-0.017484
-0.0174573
-0.0174429
-0.0174438
-0.0174635
-0.0175064
-0.0175774
-0.0176822
-0.0178257
-0.018012
-0.0182429
-0.0185176
-0.0188288
-0.0191585
-0.0194464
-0.0197185
-0.0175638
-0.0175271
-0.0174955
-0.017472
-0.0174613
-0.0174665
-0.017491
-0.0175385
-0.0176138
-0.0177212
-0.0178646
-0.0180459
-0.0182637
-0.0185118
-0.0187757
-0.019029
-0.0192191
-0.0193531
-0.0175754
-0.0175376
-0.0175073
-0.0174866
-0.0174794
-0.0174886
-0.0175174
-0.0175693
-0.0176481
-0.0177576
-0.0179003
-0.0180762
-0.018281
-0.0185046
-0.018728
-0.0189226
-0.0190466
-0.0191044
-0.017588
-0.0175486
-0.0175189
-0.0175007
-0.0174968
-0.0175098
-0.0175427
-0.0175984
-0.0176805
-0.0177918
-0.0179337
-0.0181045
-0.0182981
-0.0185013
-0.0186937
-0.0188477
-0.018933
-0.0189566
-0.0176008
-0.0175596
-0.0175302
-0.0175142
-0.0175133
-0.0175299
-0.0175665
-0.0176259
-0.0177109
-0.017824
-0.0179656
-0.0181329
-0.0183181
-0.0185069
-0.018679
-0.0188098
-0.0188786
-0.0188956
-0.0176132
-0.0175701
-0.0175407
-0.0175268
-0.0175286
-0.0175485
-0.0175886
-0.0176514
-0.0177395
-0.0178548
-0.0179971
-0.0181629
-0.0183435
-0.0185248
-0.0186872
-0.0188101
-0.0188799
-0.0189083
-0.0176232
-0.0175785
-0.0175492
-0.0175369
-0.0175411
-0.0175638
-0.0176069
-0.0176728
-0.0177639
-0.0178817
-0.0180258
-0.0181925
-0.018373
-0.0185534
-0.0187158
-0.0188429
-0.018925
-0.0189737
-0.017631
-0.0175857
-0.0175563
-0.0175457
-0.0175523
-0.0175777
-0.0176238
-0.0176928
-0.017787
-0.0179079
-0.0180551
-0.0182246
-0.0184082
-0.0185926
-0.018762
-0.0189014
-0.0190035
-0.0190769
-0.0176361
-0.0175914
-0.0175623
-0.0175535
-0.0175627
-0.0175911
-0.0176403
-0.0177128
-0.0178108
-0.0179359
-0.0180879
-0.0182631
-0.018454
-0.0186486
-0.0188328
-0.0189935
-0.0191246
-0.0192303
-0.0176356
-0.0175929
-0.017565
-0.0175584
-0.0175705
-0.0176018
-0.0176542
-0.0177302
-0.0178323
-0.0179626
-0.0181211
-0.018305
-0.0185076
-0.0187184
-0.0189248
-0.0191149
-0.0192816
-0.0194244
-0.0176244
-0.0175861
-0.0175612
-0.0175576
-0.0175725
-0.0176064
-0.0176613
-0.01774
-0.0178457
-0.0179808
-0.0181462
-0.01834
-0.0185567
-0.018787
-0.0190195
-0.0192424
-0.0194459
-0.0196253
-0.0175951
-0.0175649
-0.0175462
-0.0175465
-0.0175641
-0.0175993
-0.0176545
-0.0177332
-0.0178391
-0.0179755
-0.0181442
-0.0183441
-0.0185708
-0.0188163
-0.0190697
-0.0193184
-0.0195498
-0.0197542
-0.017538
-0.0175212
-0.0175129
-0.0175185
-0.0175374
-0.0175708
-0.0176215
-0.0176934
-0.0177909
-0.0179181
-0.0180774
-0.0182689
-0.018489
-0.0187306
-0.0189834
-0.0192341
-0.019468
-0.0196716
-0.0174451
-0.0174477
-0.0174536
-0.0174641
-0.0174808
-0.0175057
-0.0175419
-0.0175934
-0.0176647
-0.0177599
-0.0178818
-0.0180311
-0.0182052
-0.0183982
-0.0186007
-0.0188004
-0.0189821
-0.0191305
-0.0173524
-0.0173749
-0.0173939
-0.0174073
-0.0174194
-0.0174327
-0.01745
-0.0174742
-0.0175089
-0.0175573
-0.0176214
-0.0177017
-0.0177962
-0.0179
-0.0180058
-0.0181035
-0.0181796
-0.0182198
-0.0172969
-0.0173338
-0.0173619
-0.0173773
-0.0173859
-0.0173907
-0.0173935
-0.0173965
-0.0174018
-0.0174115
-0.0174266
-0.0174469
-0.0174705
-0.0174934
-0.0175097
-0.0175113
-0.0174872
-0.0174253
-0.0172719
-0.0173181
-0.0173522
-0.0173691
-0.0173759
-0.0173751
-0.0173678
-0.0173551
-0.017338
-0.017317
-0.0172921
-0.0172624
-0.0172256
-0.0171782
-0.0171153
-0.0170309
-0.0169161
-0.0167613
-0.0172718
-0.0173228
-0.0173602
-0.017379
-0.0173859
-0.0173827
-0.0173698
-0.0173473
-0.0173152
-0.0172729
-0.0172192
-0.0171522
-0.0170695
-0.0169675
-0.0168421
-0.0166886
-0.0165003
-0.0162698
-0.017288
-0.0173404
-0.0173798
-0.0174014
-0.0174102
-0.0174072
-0.0173924
-0.0173652
-0.0173248
-0.0172695
-0.0171973
-0.0171056
-0.0169913
-0.0168507
-0.0166801
-0.0164754
-0.0162317
-0.0159436
-0.0173121
-0.0173642
-0.0174055
-0.0174308
-0.0174429
-0.0174422
-0.0174281
-0.0174
-0.0173563
-0.0172947
-0.0172125
-0.0171065
-0.0169728
-0.0168076
-0.016607
-0.0163674
-0.0160849
-0.0157556
-0.0173373
-0.0173889
-0.017433
-0.017463
-0.0174794
-0.017482
-0.0174705
-0.0174439
-0.0174004
-0.0173375
-0.0172516
-0.017139
-0.0169954
-0.0168165
-0.0165983
-0.016337
-0.0160292
-0.0156724
-0.017359
-0.0174117
-0.0174601
-0.0174956
-0.0175167
-0.0175232
-0.0175151
-0.0174916
-0.0174507
-0.0173896
-0.0173044
-0.0171909
-0.0170442
-0.0168597
-0.0166328
-0.0163597
-0.0160372
-0.015663
-0.0173747
-0.0174313
-0.017486
-0.0175276
-0.0175535
-0.0175641
-0.01756
-0.0175404
-0.0175036
-0.0174465
-0.017365
-0.0172544
-0.0171095
-0.0169251
-0.0166962
-0.0164185
-0.0160887
-0.0157047
-0.0173831
-0.0174475
-0.0175104
-0.0175584
-0.017589
-0.0176037
-0.0176035
-0.0175884
-0.0175567
-0.0175051
-0.0174293
-0.0173244
-0.0171846
-0.0170042
-0.0167779
-0.0165009
-0.0161693
-0.015781
-0.0173853
-0.0174588
-0.0175294
-0.0175826
-0.0176169
-0.0176347
-0.0176379
-0.0176265
-0.0175992
-0.0175526
-0.0174824
-0.0173831
-0.0172489
-0.0170736
-0.0168515
-0.0165772
-0.0162466
-0.0158575
-0.00219854
-0.0021802
-0.00217658
-0.0021994
-0.00225002
-0.00232797
-0.00243265
-0.00256323
-0.00271875
-0.00289846
-0.00310188
-0.00332921
-0.00358124
-0.0038594
-0.00416565
-0.00450234
-0.0048719
-0.00527654
-0.0057179
-0.00619672
-0.00671252
-0.00726328
-0.00784519
-0.00845229
-0.00907622
-0.0097059
-0.0103272
-0.010923
-0.0114725
-0.011952
-0.012335
-0.0125923
-0.0126936
-0.0126078
-0.0123048
-0.0117568
-0.0109396
-0.0098343
-0.00842875
-0.0067185
-0.00470787
-0.00241056
0.000149856
0.00294105
0.0059289
0.00905844
0.0122761
0.0155231
0.0187373
0.0218559
0.0248175
0.027564
0.0300418
0.0322038
0.03401
0.0354283
0.0364347
0.0370136
0.0371569
0.0368645
0.0361438
0.0350086
0.0334778
0.031578
0.0293415
0.0268053
0.0240115
0.0210061
0.0178392
0.0145635
0.0112334
0.00790365
0.00462816
0.00145763
-0.00156026
-0.00438518
-0.00698284
-0.00932659
-0.0113982
-0.013188
-0.0146948
-0.015925
-0.0168915
-0.017613
-0.0181118
-0.0184133
-0.0185439
-0.0185303
-0.0183987
-0.0181738
-0.0178784
-0.0175335
-0.0171576
-0.016767
-0.0163755
-0.0159949
-0.0156342
-0.0153002
-0.0149975
-0.0147285
-0.0144937
-0.0142917
-0.0141197
-0.0139739
-0.0138498
-0.0137423
-0.0136465
-0.0135574
-0.0134705
-0.0133817
-0.0132878
-0.013186
-0.0130745
-0.0129521
-0.0128181
-0.0126726
-0.0125162
-0.0123497
-0.0121745
-0.011992
-0.0118039
-0.0116117
-0.0114172
-0.0112218
-0.011027
-0.0108341
-0.0106441
-0.0104581
-0.0102767
-0.0101005
-0.00992999
-0.00976534
-0.00960671
-0.00945412
-0.0093075
-0.0091667
-0.0090315
-0.00890163
-0.00877679
-0.00865665
-0.00854087
-0.00842909
-0.00832097
-0.00821615
-0.00811429
-0.00801506
-0.00791813
-0.00782321
-0.00773
-0.00763822
-0.00754762
-0.00745796
-0.00736902
-0.00728058
-0.00719246
-0.00710448
-0.00701648
-0.00692832
-0.00683986
-0.00675097
-0.00666153
-0.00657144
-0.00648058
-0.00638885
-0.00629614
-0.00620233
-0.00610725
-0.00601069
-0.00591232
-0.00581163
-0.00570786
-0.00559992
-0.0054862
-0.00536506
-0.00523461
-0.00509341
-0.00494068
-0.00478095
-0.0046182
-0.00440458
-0.00218411
-0.00216552
-0.00216177
-0.00218315
-0.00222892
-0.00229752
-0.00238796
-0.0024994
-0.00263105
-0.00278235
-0.00295322
-0.00314399
-0.00335562
-0.00358965
-0.00384812
-0.00413334
-0.00444777
-0.00479371
-0.00517305
-0.005587
-0.00603588
-0.00651887
-0.00703378
-0.00757673
-0.0081418
-0.00872072
-0.00930238
-0.00987254
-0.0104135
-0.010904
-0.0113194
-0.0116318
-0.0118108
-0.0118246
-0.0116411
-0.0112293
-0.0105612
-0.00961357
-0.00836936
-0.00681962
-0.00496484
-0.00281574
-0.000391464
0.00228371
0.00516349
0.00820487
0.011351
0.0145409
0.0177108
0.0207963
0.0237345
0.0264656
0.0289351
0.0310947
0.0329036
0.0343293
0.0353474
0.035942
0.0361052
0.0358362
0.0351413
0.0340341
0.032535
0.0306708
0.0284741
0.0259819
0.0232363
0.0202836
0.0171739
0.01396
0.0106965
0.00743794
0.004238
0.00114752
-0.00178827
-0.00452907
-0.00704326
-0.00930623
-0.0113017
-0.0130218
-0.0144673
-0.0156458
-0.0165714
-0.017263
-0.0177428
-0.0180356
-0.0181665
-0.018161
-0.0180437
-0.0178375
-0.0175638
-0.0172421
-0.0168897
-0.016522
-0.0161523
-0.0157915
-0.0154486
-0.0151303
-0.0148413
-0.014584
-0.0143592
-0.0141657
-0.0140012
-0.013862
-0.0137441
-0.0136425
-0.0135525
-0.0134692
-0.0133883
-0.0133058
-0.0132182
-0.013123
-0.013018
-0.0129021
-0.0127745
-0.0126352
-0.0124846
-0.0123236
-0.0121535
-0.0119757
-0.0117917
-0.0116033
-0.011412
-0.0112195
-0.0110271
-0.0108362
-0.0106479
-0.0104632
-0.0102828
-0.0101074
-0.00993736
-0.00977304
-0.00961458
-0.00946203
-0.00931533
-0.00917436
-0.00903891
-0.00890874
-0.00878356
-0.00866304
-0.00854686
-0.00843468
-0.00832615
-0.00822093
-0.00811867
-0.00801906
-0.00792176
-0.00782649
-0.00773295
-0.00764086
-0.00754997
-0.00746004
-0.00737085
-0.00728218
-0.00719385
-0.00710569
-0.00701752
-0.0069292
-0.0068406
-0.00675159
-0.00666204
-0.00657185
-0.0064809
-0.00638908
-0.00629629
-0.00620239
-0.0061072
-0.00601052
-0.00591198
-0.00581109
-0.00570708
-0.00559889
-0.00548527
-0.0053646
-0.00523545
-0.00509647
-0.00494733
-0.00479333
-0.00463712
-0.00443404
-0.00205199
-0.00204293
-0.00204827
-0.00207541
-0.00212252
-0.00218737
-0.00226861
-0.00236523
-0.00247644
-0.00260177
-0.00274127
-0.00289569
-0.00306648
-0.00325578
-0.00346634
-0.00370139
-0.0039644
-0.00425888
-0.00458822
-0.00495551
-0.00536331
-0.00581353
-0.00630708
-0.0068435
-0.0074204
-0.00803279
-0.00867237
-0.00932677
-0.00997897
-0.0106069
-0.0111834
-0.0116768
-0.0120512
-0.0122685
-0.0122898
-0.0120773
-0.0115966
-0.0108191
-0.00972363
-0.0082992
-0.00654539
-0.00447033
-0.00208993
0.000561557
0.00343821
0.00648858
0.00965397
0.0128707
0.0160725
0.0191925
0.022166
0.0249318
0.0274343
0.0296252
0.0314638
0.032918
0.0339641
0.0345871
0.0347799
0.0345422
0.0338811
0.0328101
0.0313489
0.0295235
0.0273659
0.0249127
0.0222057
0.0192911
0.0162196
0.0130446
0.00982187
0.00660729
0.00345575
0.000419107
-0.00245542
-0.00512738
-0.00756477
-0.00974472
-0.0116527
-0.0132832
-0.0146392
-0.0157314
-0.0165765
-0.0171957
-0.0176133
-0.0178549
-0.0179462
-0.0179123
-0.0177767
-0.0175612
-0.0172856
-0.0169676
-0.0166232
-0.0162662
-0.0159089
-0.0155614
-0.015232
-0.0149271
-0.0146509
-0.0144059
-0.0141928
-0.0140105
-0.0138565
-0.0137274
-0.0136192
-0.0135271
-0.0134463
-0.0133721
-0.0133001
-0.0132262
-0.0131471
-0.01306
-0.0129628
-0.0128541
-0.0127334
-0.0126004
-0.0124557
-0.0123
-0.0121346
-0.0119611
-0.0117808
-0.0115957
-0.0114072
-0.0112171
-0.0110267
-0.0108375
-0.0106506
-0.010467
-0.0102875
-0.0101128
-0.00994326
-0.00977928
-0.00962102
-0.00946855
-0.00932185
-0.00918079
-0.00904518
-0.0089148
-0.00878937
-0.00866858
-0.0085521
-0.0084396
-0.00833075
-0.0082252
-0.00812262
-0.00802268
-0.00792508
-0.00782951
-0.00773569
-0.00764333
-0.00755219
-0.00746202
-0.00737261
-0.00728374
-0.00719522
-0.00710688
-0.00701855
-0.0069301
-0.00684137
-0.00675224
-0.00666258
-0.0065723
-0.00648127
-0.00638938
-0.00629651
-0.00620253
-0.00610727
-0.00601048
-0.00591183
-0.00581083
-0.00570676
-0.00559866
-0.00548536
-0.00536552
-0.00523794
-0.00510163
-0.00495647
-0.00480826
-0.00465968
-0.00446552
-0.00179719
-0.00181054
-0.00183725
-0.00187891
-0.00193411
-0.00200091
-0.00207827
-0.00216513
-0.00226077
-0.00236507
-0.00247864
-0.00260304
-0.00274085
-0.00289569
-0.00307218
-0.00327579
-0.00351268
-0.00378951
-0.00411325
-0.00449103
-0.00492987
-0.00543624
-0.00601555
-0.00667122
-0.00740366
-0.00820907
-0.00907821
-0.00999539
-0.0109378
-0.0118752
-0.0127706
-0.0135813
-0.0142606
-0.0147597
-0.0150307
-0.0150291
-0.0147161
-0.0140608
-0.0130429
-0.0116536
-0.00989374
-0.00777432
-0.00532341
-0.00258476
0.000393611
0.00355523
0.00683689
0.0101709
0.0134876
0.0167173
0.0197933
0.0226531
0.0252409
0.0275084
0.0294158
0.0309324
0.0320361
0.0327136
0.032959
0.0327733
0.0321643
0.031146
0.0297365
0.0279607
0.0258492
0.0234373
0.0207659
0.0178811
0.0148335
0.0116778
0.00847123
0.00527211
0.00213801
-0.000876287
-0.00372078
-0.00635128
-0.00873318
-0.0108429
-0.0126661
-0.0141985
-0.0154453
-0.0164203
-0.0171443
-0.0176427
-0.0179441
-0.0180778
-0.0180724
-0.0179548
-0.0177494
-0.0174778
-0.017159
-0.0168094
-0.0164431
-0.0160726
-0.0157082
-0.0153589
-0.0150318
-0.0147322
-0.0144637
-0.0142281
-0.0140257
-0.0138549
-0.0137131
-0.0135964
-0.0135006
-0.0134207
-0.0133519
-0.0132891
-0.0132279
-0.0131641
-0.0130941
-0.0130154
-0.0129256
-0.0128235
-0.0127085
-0.0125804
-0.0124398
-0.0122876
-0.0121251
-0.0119539
-0.0117756
-0.011592
-0.0114049
-0.0112158
-0.0110263
-0.0108378
-0.0106514
-0.0104683
-0.0102892
-0.0101148
-0.00994554
-0.00978176
-0.00962366
-0.0094713
-0.00932467
-0.00918364
-0.00904804
-0.00891764
-0.00879216
-0.00867129
-0.00855473
-0.00844213
-0.00833316
-0.00822748
-0.00812477
-0.00802471
-0.00792697
-0.00783127
-0.00773731
-0.00764482
-0.00755355
-0.00746326
-0.00737373
-0.00728475
-0.00719613
-0.00710769
-0.00701928
-0.00693074
-0.00684194
-0.00675274
-0.00666303
-0.00657269
-0.00648161
-0.00638969
-0.00629679
-0.00620277
-0.00610748
-0.00601067
-0.00591203
-0.00581107
-0.00570716
-0.00559943
-0.00548682
-0.00536817
-0.00524247
-0.00510895
-0.00496758
-0.00482388
-0.00468003
-0.00449769
-0.0014521
-0.00149933
-0.00155872
-0.00162293
-0.00169193
-0.00176586
-0.00184397
-0.00192588
-0.00201169
-0.00210227
-0.00219956
-0.00230682
-0.00242886
-0.00257209
-0.00274456
-0.00295577
-0.00321658
-0.00353893
-0.00393554
-0.00441946
-0.00500339
-0.00569869
-0.00651414
-0.00745432
-0.00851793
-0.00969619
-0.0109716
-0.012317
-0.0136962
-0.0150642
-0.0163693
-0.0175553
-0.0185642
-0.0193393
-0.0198277
-0.0199832
-0.0197682
-0.0191557
-0.0181302
-0.0166876
-0.0148352
-0.0125972
-0.0100113
-0.00712126
-0.00398038
-0.000650254
0.00280142
0.00630303
0.0097815
0.0131647
0.0163838
0.0193756
0.0220838
0.0244608
0.0264682
0.028077
0.0292673
0.0300276
0.0303537
0.0302478
0.0297179
0.0287775
0.0274436
0.0257397
0.0236944
0.0213413
0.0187198
0.0158748
0.0128572
0.00972234
0.00652931
0.00333912
0.000212752
-0.00279106
-0.00561815
-0.00822094
-0.01056
-0.0126074
-0.014348
-0.0157769
-0.0169004
-0.0177348
-0.0183048
-0.0186411
-0.018778
-0.0187504
-0.0185925
-0.0183353
-0.0180064
-0.017629
-0.0172222
-0.0168019
-0.0163808
-0.0159694
-0.0155761
-0.0152077
-0.0148697
-0.0145659
-0.0142984
-0.0140679
-0.0138738
-0.0137136
-0.0135841
-0.0134807
-0.0133985
-0.0133324
-0.0132769
-0.0132268
-0.0131772
-0.0131239
-0.0130632
-0.0129923
-0.0129091
-0.0128123
-0.0127014
-0.0125764
-0.012438
-0.0122872
-0.0121256
-0.0119548
-0.0117767
-0.0115929
-0.0114055
-0.0112161
-0.0110263
-0.0108375
-0.0106509
-0.0104676
-0.0102884
-0.0101139
-0.00994466
-0.00978093
-0.0096229
-0.00947065
-0.00932414
-0.00918325
-0.00904779
-0.00891751
-0.00879215
-0.0086714
-0.00855493
-0.00844242
-0.00833352
-0.00822791
-0.00812525
-0.00802522
-0.0079275
-0.00783181
-0.00773786
-0.00764537
-0.00755409
-0.00746379
-0.00737424
-0.00728524
-0.00719659
-0.00710814
-0.0070197
-0.00693114
-0.00684231
-0.00675309
-0.00666337
-0.00657302
-0.00648193
-0.00639
-0.0062971
-0.0062031
-0.00610783
-0.00601108
-0.00591253
-0.00581176
-0.00570821
-0.00560111
-0.00548953
-0.00537247
-0.00524904
-0.00511854
-0.00498103
-0.00484094
-0.00469984
-0.00453236
-0.00106177
-0.00115109
-0.00125118
-0.0013438
-0.0014312
-0.00151615
-0.00159987
-0.00168349
-0.0017688
-0.00185873
-0.00195767
-0.00207192
-0.00221002
-0.00238285
-0.00260369
-0.00288807
-0.00325343
-0.00371861
-0.00430309
-0.00502587
-0.00590399
-0.00695064
-0.00817307
-0.00957042
-0.0111319
-0.0128355
-0.0146477
-0.0165239
-0.0184103
-0.0202459
-0.0219659
-0.0235048
-0.024799
-0.0257901
-0.0264269
-0.0266673
-0.0264795
-0.0258425
-0.0247472
-0.0231969
-0.02121
-0.018816
-0.0160539
-0.0129727
-0.00963065
-0.00609401
-0.00243482
0.00127138
0.00494803
0.00852016
0.0119168
0.0150735
0.0179337
0.0204505
0.0225868
0.0243157
0.0256196
0.0264893
0.0269227
0.0269231
0.0264985
0.0256619
0.0244289
0.0228206
0.0208633
0.018588
0.0160321
0.0132395
0.0102606
0.00715178
0.00397399
0.000791276
-0.00233151
-0.00533111
-0.00814843
-0.0107311
-0.0130346
-0.0150263
-0.0166871
-0.0180104
-0.0190024
-0.0196805
-0.0200728
-0.0202149
-0.0201474
-0.0199125
-0.0195514
-0.0191018
-0.0185964
-0.0180624
-0.017521
-0.0169883
-0.0164763
-0.0159936
-0.0155464
-0.0151392
-0.0147747
-0.0144547
-0.0141794
-0.0139477
-0.0137573
-0.0136048
-0.0134857
-0.0133945
-0.0133255
-0.0132728
-0.0132305
-0.0131926
-0.0131542
-0.0131105
-0.0130579
-0.0129934
-0.012915
-0.0128216
-0.0127127
-0.0125886
-0.0124501
-0.0122986
-0.0121357
-0.0119634
-0.0117834
-0.0115979
-0.0114087
-0.0112177
-0.0110265
-0.0108365
-0.010649
-0.0104649
-0.0102851
-0.0101103
-0.0099408
-0.00977699
-0.009619
-0.00946688
-0.00932055
-0.00917989
-0.00904469
-0.0089147
-0.00878962
-0.00866915
-0.00855296
-0.00844071
-0.00833205
-0.00822667
-0.00812421
-0.00802437
-0.00792682
-0.00783128
-0.00773745
-0.00764508
-0.0075539
-0.00746368
-0.0073742
-0.00728526
-0.00719667
-0.00710825
-0.00701985
-0.00693131
-0.00684251
-0.00675332
-0.00666362
-0.00657329
-0.00648223
-0.00639033
-0.00629747
-0.00620352
-0.00610832
-0.00601167
-0.00591331
-0.00581286
-0.00570984
-0.00560361
-0.00549337
-0.00537824
-0.00525741
-0.00513021
-0.00499667
-0.00485966
-0.00472028
-0.00456874
-0.00068378
-0.000821664
-0.000967679
-0.00109202
-0.00120077
-0.00130089
-0.00139655
-0.00149157
-0.00159072
-0.00170028
-0.00182856
-0.00198647
-0.00218793
-0.00245001
-0.00279292
-0.00323953
-0.00381473
-0.00454423
-0.00545295
-0.00656293
-0.00789088
-0.00944547
-0.0112249
-0.0132149
-0.0153878
-0.0177026
-0.0201063
-0.0225366
-0.0249245
-0.0271982
-0.0292864
-0.0311211
-0.0326401
-0.0337888
-0.0345213
-0.0348017
-0.0346043
-0.0339136
-0.0327261
-0.0310533
-0.0289163
-0.0263467
-0.0233872
-0.0200914
-0.0165221
-0.0127501
-0.00885193
-0.0049075
-0.000997409
0.00279982
0.00641048
0.00976812
0.0128155
0.0155058
0.0178034
0.0196833
0.0211305
0.0221382
0.0227064
0.0228396
0.0225461
0.0218382
0.0207295
0.0192383
0.0173879
0.0152066
0.0127294
0.00999875
0.00706498
0.00398542
0.00082339
-0.00235371
-0.00547667
-0.00847718
-0.0112907
-0.0138591
-0.0161332
-0.0180748
-0.019659
-0.0208766
-0.0217325
-0.0222444
-0.0224425
-0.0223668
-0.0220641
-0.0215842
-0.0209767
-0.0202876
-0.0195571
-0.0188181
-0.0180958
-0.0174084
-0.0167678
-0.0161815
-0.0156534
-0.0151849
-0.0147762
-0.0144258
-0.0141314
-0.0138898
-0.0136966
-0.0135467
-0.013434
-0.0133519
-0.0132935
-0.013252
-0.0132207
-0.0131931
-0.0131635
-0.0131272
-0.0130803
-0.0130197
-0.0129435
-0.0128508
-0.0127412
-0.0126153
-0.0124743
-0.0123197
-0.0121534
-0.0119775
-0.011794
-0.0116052
-0.011413
-0.0112193
-0.0110258
-0.0108339
-0.0106448
-0.0104596
-0.010279
-0.0101036
-0.00993378
-0.00976986
-0.00961194
-0.00946001
-0.00931399
-0.0091737
-0.00903891
-0.00890936
-0.00878475
-0.00866473
-0.00854899
-0.00843717
-0.00832893
-0.00822392
-0.00812183
-0.00802231
-0.00792507
-0.0078298
-0.00773622
-0.00764406
-0.00755307
-0.00746303
-0.0073737
-0.00728489
-0.00719641
-0.00710809
-0.00701977
-0.00693132
-0.00684258
-0.00675345
-0.0066638
-0.00657353
-0.00648253
-0.00639069
-0.0062979
-0.00620404
-0.00610896
-0.00601248
-0.00591438
-0.00581436
-0.00571202
-0.00560684
-0.00549816
-0.0053852
-0.00526717
-0.00514338
-0.00501373
-0.00487938
-0.00474104
-0.00460451
-0.000396756
-0.000583339
-0.000776032
-0.000933045
-0.0010653
-0.00118531
-0.00130143
-0.00142144
-0.00155441
-0.0017114
-0.00190612
-0.00215563
-0.00248067
-0.00290575
-0.00345876
-0.00417007
-0.00507099
-0.00619175
-0.00755876
-0.0091916
-0.0110998
-0.0132803
-0.0157151
-0.0183711
-0.0212004
-0.0241428
-0.0271286
-0.0300827
-0.0329281
-0.0355892
-0.0379948
-0.04008
-0.0417871
-0.0430667
-0.0438782
-0.0441904
-0.0439809
-0.043238
-0.0419629
-0.0401691
-0.0378782
-0.0351252
-0.0319563
-0.028429
-0.0246107
-0.0205767
-0.0164086
-0.0121913
-0.00801023
-0.00394849
-8.35134e-05
0.0035154
0.00678936
0.00969123
0.0121861
0.014251
0.0158733
0.0170488
0.0177797
0.0180719
0.0179337
0.0173768
0.0164132
0.0150572
0.013329
0.0112538
0.00886416
0.00620138
0.00331568
0.000265825
-0.00288215
-0.00605695
-0.00918458
-0.0121913
-0.0150066
-0.0175665
-0.0198162
-0.0217113
-0.0232227
-0.024336
-0.0250537
-0.0253933
-0.0253861
-0.0250757
-0.0245145
-0.0237601
-0.0228711
-0.0219028
-0.0209046
-0.0199169
-0.0189709
-0.0180883
-0.0172823
-0.0165598
-0.0159227
-0.0153695
-0.0148969
-0.0145002
-0.0141739
-0.0139118
-0.0137072
-0.0135526
-0.0134403
-0.0133622
-0.0133099
-0.0132754
-0.0132511
-0.01323
-0.0132058
-0.0131733
-0.0131285
-0.0130684
-0.0129911
-0.0128959
-0.0127827
-0.0126524
-0.0125064
-0.0123465
-0.0121748
-0.0119937
-0.0118053
-0.0116121
-0.0114159
-0.0112188
-0.0110224
-0.0108282
-0.0106373
-0.0104508
-0.0102692
-0.0100933
-0.00992326
-0.00975936
-0.00960165
-0.00945009
-0.00930454
-0.00916482
-0.00903065
-0.00890174
-0.00877777
-0.00865841
-0.00854329
-0.00843207
-0.0083244
-0.00821993
-0.00811833
-0.00801928
-0.00792245
-0.00782757
-0.00773433
-0.00764248
-0.00755177
-0.00746197
-0.00737286
-0.00728424
-0.00719593
-0.00710775
-0.00701956
-0.00693122
-0.00684259
-0.00675354
-0.00666398
-0.00657379
-0.00648287
-0.00639112
-0.00629843
-0.00620469
-0.00610976
-0.00601351
-0.00591574
-0.00581623
-0.00571468
-0.00561066
-0.00550365
-0.00539293
-0.00527769
-0.00515716
-0.00503108
-0.004899
-0.00476114
-0.00463722
-0.000282918
-0.000515773
-0.000752889
-0.00094199
-0.00109999
-0.00124604
-0.00139383
-0.00155632
-0.00174811
-0.00198635
-0.00229141
-0.00268757
-0.00320325
-0.00387067
-0.00472496
-0.00580232
-0.00713765
-0.00876132
-0.0106957
-0.0129514
-0.0155245
-0.0183946
-0.0215241
-0.0248601
-0.0283366
-0.0318785
-0.0354058
-0.0388379
-0.0420961
-0.0451066
-0.0478018
-0.050121
-0.0520107
-0.0534252
-0.0543265
-0.0546853
-0.0544803
-0.0537009
-0.0523512
-0.0504438
-0.048002
-0.045063
-0.0416765
-0.0379037
-0.0338163
-0.0294946
-0.0250256
-0.0205
-0.016009
-0.0116412
-0.007479
-0.00359563
-5.2752e-05
0.00310122
0.00583158
0.0081167
0.00994627
0.0113188
0.0122388
0.012714
0.0127526
0.012365
0.0115625
0.0103552
0.00875945
0.00679755
0.0044998
0.0019064
-0.000932001
-0.00395471
-0.00709243
-0.0102695
-0.0134066
-0.0164243
-0.0192461
-0.0218017
-0.0240303
-0.0258826
-0.0273244
-0.0283351
-0.0289144
-0.0290785
-0.0288592
-0.0283027
-0.0274665
-0.0264156
-0.0252175
-0.0239378
-0.0226359
-0.0213618
-0.0201538
-0.0190388
-0.0180327
-0.0171426
-0.0163688
-0.0157071
-0.0151505
-0.0146906
-0.014318
-0.0140235
-0.0137971
-0.0136291
-0.0135095
-0.0134283
-0.0133758
-0.0133426
-0.0133201
-0.0133003
-0.0132766
-0.0132435
-0.0131966
-0.0131331
-0.0130511
-0.0129502
-0.0128306
-0.0126933
-0.0125402
-0.0123732
-0.0121948
-0.0120073
-0.0118133
-0.0116149
-0.0114144
-0.0112136
-0.0110143
-0.0108178
-0.0106252
-0.0104374
-0.0102552
-0.010079
-0.00990895
-0.00974533
-0.00958811
-0.00943719
-0.0092924
-0.00915349
-0.00902018
-0.00889214
-0.00876904
-0.00865052
-0.00853621
-0.00842576
-0.00831881
-0.00821502
-0.00811405
-0.00801556
-0.00791926
-0.00782485
-0.00773204
-0.00764057
-0.0075502
-0.0074607
-0.00737185
-0.00728347
-0.00719536
-0.00710736
-0.00701933
-0.00693112
-0.0068426
-0.00675367
-0.00666421
-0.00657412
-0.0064833
-0.00639165
-0.00629908
-0.00620548
-0.00611075
-0.00601476
-0.00591737
-0.00581843
-0.0057177
-0.00561487
-0.00550948
-0.00540088
-0.00528821
-0.00517056
-0.00504748
-0.00491734
-0.00477949
-0.00466496
-0.000429009
-0.000701245
-0.000977128
-0.00119642
-0.00138268
-0.00156231
-0.00175516
-0.00198029
-0.00225881
-0.00261483
-0.00307614
-0.0036747
-0.00444651
-0.00543069
-0.00666771
-0.00819668
-0.0100519
-0.0122588
-0.0148301
-0.0177624
-0.0210345
-0.0246067
-0.0284226
-0.0324127
-0.0364982
-0.0405956
-0.0446214
-0.0484943
-0.0521384
-0.0554832
-0.0584646
-0.0610248
-0.0631122
-0.0646818
-0.065696
-0.0661249
-0.0659468
-0.0651505
-0.0637416
-0.0617309
-0.0591436
-0.0560192
-0.0524099
-0.0483805
-0.044007
-0.0393748
-0.0345766
-0.0297094
-0.0248711
-0.0201567
-0.0156548
-0.011444
-0.00758993
-0.00414346
-0.00114007
0.0013994
0.00346663
0.00506276
0.00619481
0.00687225
0.00710412
0.00689929
0.00626782
0.00521644
0.00375743
0.00191027
-0.000296708
-0.00282393
-0.0056197
-0.00862076
-0.0117539
-0.0149384
-0.0180896
-0.0211219
-0.0239528
-0.0265061
-0.0287151
-0.0305255
-0.0318976
-0.0328072
-0.0332487
-0.0332365
-0.0328022
-0.0319935
-0.030872
-0.0295093
-0.0279819
-0.0263658
-0.0247315
-0.0231391
-0.0216361
-0.0202558
-0.0190181
-0.0179312
-0.0169945
-0.0162011
-0.0155404
-0.0149997
-0.014566
-0.014226
-0.0139666
-0.0137751
-0.0136392
-0.0135468
-0.0134865
-0.0134476
-0.0134204
-0.0133962
-0.0133676
-0.0133288
-0.0132754
-0.0132045
-0.0131145
-0.013005
-0.0128765
-0.0127305
-0.0125688
-0.0123937
-0.0122077
-0.0120135
-0.0118135
-0.0116101
-0.0114053
-0.0112012
-0.0109993
-0.0108009
-0.0106071
-0.0104186
-0.0102362
-0.0100601
-0.00989059
-0.0097277
-0.00957138
-0.00942148
-0.00927778
-0.00914001
-0.00900784
-0.00888093
-0.00875892
-0.00864145
-0.00852814
-0.00841862
-0.00831254
-0.00820955
-0.00810931
-0.00801149
-0.00791579
-0.00782192
-0.0077296
-0.00763857
-0.00754858
-0.00745941
-0.00737086
-0.00728273
-0.00719484
-0.00710704
-0.00701917
-0.00693111
-0.00684272
-0.0067539
-0.00666455
-0.00657456
-0.00648384
-0.00639231
-0.00629987
-0.00620643
-0.00611191
-0.0060162
-0.00591922
-0.00582084
-0.0057209
-0.00561917
-0.00551524
-0.00540848
-0.00529798
-0.00518267
-0.00506187
-0.00493335
-0.00479521
-0.00468659
-0.000911309
-0.0012123
-0.00151841
-0.00176493
-0.00198211
-0.00220355
-0.00245561
-0.00276396
-0.0031567
-0.00366528
-0.00432502
-0.0051752
-0.00625841
-0.00761885
-0.00929962
-0.0113391
-0.0137665
-0.0165981
-0.0198331
-0.0234515
-0.027414
-0.0316634
-0.0361285
-0.0407282
-0.045377
-0.0499887
-0.0544801
-0.0587726
-0.062793
-0.0664736
-0.069752
-0.0725707
-0.0748777
-0.0766265
-0.0777778
-0.0783002
-0.0781702
-0.0773766
-0.0759237
-0.0738213
-0.0710966
-0.0677904
-0.0639573
-0.0596652
-0.0549941
-0.0500344
-0.0448847
-0.0396485
-0.0344309
-0.0293344
-0.0244549
-0.0198776
-0.0156735
-0.0118975
-0.00858691
-0.00576274
-0.00343179
-0.00159045
-0.000229006
0.000664133
0.00109906
0.0010836
0.000626193
-0.000268901
-0.00159349
-0.00333067
-0.00545359
-0.00792261
-0.0106843
-0.0136719
-0.0168077
-0.0200055
-0.0231748
-0.0262238
-0.0290642
-0.0316142
-0.0338019
-0.0355679
-0.0368678
-0.0376751
-0.0379786
-0.0377902
-0.0371404
-0.0360775
-0.034666
-0.0329832
-0.0311138
-0.0291441
-0.0271556
-0.0252201
-0.023395
-0.0217214
-0.0202244
-0.0189145
-0.0177907
-0.0168438
-0.0160595
-0.0154212
-0.0149113
-0.0145125
-0.0142082
-0.0139825
-0.0138205
-0.013708
-0.0136318
-0.0135797
-0.013541
-0.013506
-0.013467
-0.0134177
-0.0133537
-0.013272
-0.0131711
-0.0130508
-0.0129119
-0.012756
-0.012585
-0.0124015
-0.0122081
-0.0120075
-0.011802
-0.0115942
-0.011386
-0.0111793
-0.0109756
-0.0107762
-0.0105819
-0.0103936
-0.0102117
-0.0100365
-0.00986806
-0.00970646
-0.00955155
-0.00940314
-0.00926095
-0.00912467
-0.00899397
-0.00886847
-0.0087478
-0.00863159
-0.00851945
-0.00841102
-0.00830594
-0.00820386
-0.00810444
-0.00800737
-0.00791234
-0.00781907
-0.00772727
-0.0076367
-0.00754712
-0.00745831
-0.00737006
-0.00728219
-0.00719453
-0.00710692
-0.00701922
-0.00693129
-0.00684303
-0.00675431
-0.00666506
-0.00657516
-0.00648454
-0.00639311
-0.0063008
-0.00620752
-0.0061132
-0.00601778
-0.00592117
-0.00582332
-0.00572409
-0.0056233
-0.00552055
-0.00541523
-0.00530637
-0.00519276
-0.00507352
-0.00494631
-0.00480773
-0.00470187
-0.00178352
-0.00209976
-0.00242523
-0.00269502
-0.00294531
-0.00321622
-0.00354044
-0.00395023
-0.00448065
-0.00517027
-0.00606138
-0.0071996
-0.00863243
-0.0104068
-0.0125654
-0.0151425
-0.0181591
-0.0216192
-0.025507
-0.0297861
-0.0344012
-0.0392815
-0.0443456
-0.0495064
-0.0546761
-0.0597691
-0.0647043
-0.0694056
-0.0738017
-0.0778256
-0.0814143
-0.0845087
-0.0870543
-0.0890022
-0.0903106
-0.0909455
-0.0908816
-0.0901069
-0.0886244
-0.0864436
-0.0835921
-0.080112
-0.0760596
-0.0715055
-0.0665331
-0.0612377
-0.0557232
-0.0500998
-0.0444802
-0.0389749
-0.033688
-0.0287127
-0.0241269
-0.0199909
-0.0163454
-0.0132126
-0.0105984
-0.00849702
-0.00689593
-0.00578097
-0.00514052
-0.00496735
-0.00525515
-0.00600048
-0.00719937
-0.0088372
-0.0108879
-0.0133109
-0.0160502
-0.0190349
-0.0221819
-0.0253992
-0.0285901
-0.0316569
-0.0345057
-0.0370493
-0.0392113
-0.040928
-0.0421511
-0.0428524
-0.0430157
-0.0426504
-0.0417857
-0.0404697
-0.0387685
-0.0367636
-0.0345469
-0.0322139
-0.0298578
-0.0275616
-0.0253939
-0.0234048
-0.0216256
-0.0200701
-0.0187378
-0.0176177
-0.016692
-0.0159399
-0.0153394