/*--------------------------------*- C++ -*----------------------------------*\
  =========                 |
  \\      /  F ield         | OpenFOAM: The Open Source CFD Toolbox
   \\    /   O peration     | Website:  https://openfoam.org
    \\  /    A nd           | Version:  8
     \\/     M anipulation  |
\*---------------------------------------------------------------------------*/
FoamFile
{
    version     2.0;
    format      ascii;
    class       surfaceScalarField;
    location    "0.44";
    object      phi;
}
// * * * * * * * * * * * * * * * * * * * * * * * * * * * * * * * * * * * * * //

dimensions      [0 3 -1 0 0 0 0];

internalField   nonuniform List<scalar> 
24170
(
-4.79418e-12
4.79418e-12
5.09057e-12
-9.88476e-12
2.66493e-11
-2.15587e-11
5.67579e-11
-3.01086e-11
9.45757e-11
-3.78178e-11
1.41125e-10
-4.6549e-11
1.98122e-10
-5.69977e-11
2.67028e-10
-6.89051e-11
3.4836e-10
-8.13325e-11
4.41394e-10
-9.30339e-11
5.4429e-10
-1.02897e-10
6.54743e-10
-1.10453e-10
7.71125e-10
-1.16382e-10
8.93714e-10
-1.22589e-10
1.02324e-09
-1.29529e-10
1.1389e-09
-1.15657e-10
1.15495e-09
-1.60455e-11
1.67067e-09
-5.15724e-10
-6.39551e-12
1.11897e-11
2.7893e-11
-4.41733e-11
9.78602e-11
-9.15259e-11
1.94539e-10
-1.26787e-10
3.15804e-10
-1.59083e-10
4.64575e-10
-1.9532e-10
6.45695e-10
-2.38118e-10
8.63027e-10
-2.86238e-10
1.11743e-09
-3.35731e-10
1.40575e-09
-3.81357e-10
1.72106e-09
-4.18204e-10
2.05391e-09
-4.43306e-10
2.39412e-09
-4.56587e-10
2.73035e-09
-4.58827e-10
3.03829e-09
-4.37469e-10
3.22645e-09
-3.03817e-10
2.87906e-09
3.31346e-10
3.86934e-09
6.80391e-10
-4.78837e-13
1.16685e-11
6.59371e-11
-1.10589e-10
1.93422e-10
-2.19011e-10
3.67743e-10
-3.01107e-10
5.85712e-10
-3.77053e-10
8.5212e-10
-4.61727e-10
1.1747e-09
-5.60695e-10
1.55921e-09
-6.70755e-10
2.00602e-09
-7.82533e-10
2.50824e-09
-8.83579e-10
3.05176e-09
-9.61725e-10
3.61643e-09
-1.00798e-09
4.17682e-09
-1.01697e-09
4.69729e-09
-9.79294e-10
5.1072e-09
-8.47382e-10
5.22092e-09
-4.17531e-10
4.49155e-09
1.06071e-09
6.19792e-09
2.16297e-09
1.22838e-11
-6.15316e-13
1.20576e-10
-2.18882e-10
3.15702e-10
-4.14136e-10
5.79341e-10
-5.64747e-10
9.0742e-10
-7.05132e-10
1.30649e-09
-8.60799e-10
1.78677e-09
-1.04097e-09
2.35526e-09
-1.23924e-09
3.01079e-09
-1.43806e-09
3.74127e-09
-1.61406e-09
4.52311e-09
-1.74357e-09
5.3217e-09
-1.80657e-09
6.09013e-09
-1.78541e-09
6.75955e-09
-1.64872e-09
7.20692e-09
-1.29475e-09
7.18086e-09
-3.9147e-10
6.18849e-09
2.05308e-09
8.48222e-09
3.90419e-09
3.2562e-11
-3.31773e-11
1.92819e-10
-3.79139e-10
4.66468e-10
-6.87785e-10
8.3136e-10
-9.29638e-10
1.28259e-09
-1.15637e-09
1.82823e-09
-1.40643e-09
2.48038e-09
-1.69313e-09
3.24645e-09
-2.00532e-09
4.12266e-09
-2.31426e-09
5.09022e-09
-2.58163e-09
6.11396e-09
-2.76731e-09
7.14166e-09
-2.83427e-09
8.10094e-09
-2.74469e-09
8.88724e-09
-2.43501e-09
9.33421e-09
-1.74172e-09
9.17004e-09
-2.27307e-10
8.03109e-09
3.19204e-09
1.06103e-08
5.90297e-09
6.00466e-11
-9.32239e-11
2.83075e-10
-6.02167e-10
6.46546e-10
-1.05126e-09
1.12441e-09
-1.40751e-09
1.71081e-09
-1.74276e-09
2.41483e-09
-2.11046e-09
3.24978e-09
-2.52808e-09
4.22254e-09
-2.97807e-09
5.32563e-09
-3.41735e-09
6.5324e-09
-3.78839e-09
7.79459e-09
-4.02949e-09
9.04075e-09
-4.08044e-09
1.01723e-08
-3.87624e-09
1.10528e-08
-3.31555e-09
1.14901e-08
-2.17903e-09
1.12306e-08
3.2209e-11
1.00552e-08
4.36741e-09
1.25074e-08
8.15817e-09
9.43275e-11
-1.87551e-10
3.90987e-10
-8.98826e-10
8.55492e-10
-1.51576e-09
1.45725e-09
-2.00926e-09
2.18895e-09
-2.47446e-09
3.0601e-09
-2.98161e-09
4.08427e-09
-3.55225e-09
5.2669e-09
-4.16071e-09
6.59604e-09
-4.74649e-09
8.03648e-09
-5.22883e-09
9.52654e-09
-5.51956e-09
1.0976e-08
-5.52994e-09
1.2263e-08
-5.1632e-09
1.32281e-08
-4.28061e-09
1.36724e-08
-2.62335e-09
1.33857e-08
3.18894e-10
1.22785e-08
5.47459e-09
1.41179e-08
1.06681e-08
1.34694e-10
-3.22246e-10
5.15299e-10
-1.27943e-09
1.09131e-09
-2.09177e-09
1.82629e-09
-2.74424e-09
2.7107e-09
-3.35887e-09
3.75348e-09
-4.02439e-09
4.96753e-09
-4.76631e-09
6.35607e-09
-5.54924e-09
7.90224e-09
-6.29267e-09
9.56251e-09
-6.8891e-09
1.1263e-08
-7.22003e-09
1.28976e-08
-7.16451e-09
1.4327e-08
-6.59263e-09
1.53805e-08
-5.33409e-09
1.58694e-08
-3.11225e-09
1.56378e-08
5.50405e-10
1.46974e-08
6.41504e-09
1.53936e-08
1.34217e-08
1.80128e-10
-5.02373e-10
6.53753e-10
-1.75306e-09
1.35019e-09
-2.78821e-09
2.22529e-09
-3.61935e-09
3.26601e-09
-4.39959e-09
4.47961e-09
-5.23799e-09
5.87731e-09
-6.164e-09
7.45953e-09
-7.13146e-09
9.20477e-09
-8.03791e-09
1.10625e-08
-8.7468e-09
1.29494e-08
-9.10692e-09
1.47485e-08
-8.96369e-09
1.63119e-08
-8.15598e-09
1.74692e-08
-6.49142e-09
1.80542e-08
-3.69725e-09
1.79655e-08
6.39128e-10
1.72834e-08
7.09718e-09
1.62863e-08
1.63906e-08
2.29284e-10
-7.31658e-10
8.02993e-10
-2.32677e-09
1.62624e-09
-3.61145e-09
2.64488e-09
-4.63798e-09
3.84072e-09
-5.59543e-09
5.21795e-09
-6.61522e-09
6.78519e-09
-7.73124e-09
8.53987e-09
-8.88615e-09
1.04568e-08
-9.95484e-09
1.24809e-08
-1.07709e-08
1.4524e-08
-1.115e-08
1.64652e-08
-1.09049e-08
1.81572e-08
-9.84793e-09
1.9441e-08
-7.77526e-09
2.01797e-08
-4.43598e-09
2.03192e-08
4.99706e-10
1.99792e-08
7.43711e-09
1.67444e-08
1.95212e-08
2.80765e-10
-1.01242e-09
9.58491e-10
-3.00449e-09
1.91122e-09
-4.56418e-09
3.07215e-09
-5.79891e-09
4.41599e-09
-6.93927e-09
5.94236e-09
-8.14159e-09
7.65643e-09
-9.44531e-09
9.55294e-09
-1.07827e-08
1.16047e-08
-1.20066e-08
1.37556e-08
-1.29219e-08
1.59183e-08
-1.33127e-08
1.7976e-08
-1.29626e-08
1.97914e-08
-1.16633e-08
2.12255e-08
-9.20938e-09
2.21733e-08
-5.38377e-09
2.26174e-08
5.55648e-11
2.26942e-08
7.36035e-09
1.67128e-08
2.27258e-08
2.78254e-10
-1.29068e-09
9.29981e-10
-3.65622e-09
1.83279e-09
-5.46699e-09
2.91782e-09
-6.88394e-09
4.15641e-09
-8.17787e-09
5.54363e-09
-9.52881e-09
7.0807e-09
-1.09824e-08
8.76157e-09
-1.24635e-08
1.05635e-08
-1.38085e-08
1.24417e-08
-1.48001e-08
1.43278e-08
-1.51988e-08
1.61323e-08
-1.47672e-08
1.77535e-08
-1.32845e-08
1.90943e-08
-1.05501e-08
2.00899e-08
-6.37938e-09
2.07465e-08
-6.01091e-10
2.11793e-08
6.92758e-09
1.62663e-08
2.16258e-08
3.61232e-10
-1.65191e-09
1.19623e-09
-4.49122e-09
2.33507e-09
-6.60583e-09
3.68494e-09
-8.23382e-09
5.20373e-09
-9.69665e-09
6.87932e-09
-1.12044e-08
8.70922e-09
-1.28123e-08
1.06854e-08
-1.44397e-08
1.27841e-08
-1.59073e-08
1.49607e-08
-1.69766e-08
1.71479e-08
-1.7386e-08
1.92598e-08
-1.68791e-08
2.12018e-08
-1.52264e-08
2.28885e-08
-1.22368e-08
2.42718e-08
-7.76269e-09
2.53746e-08
-1.70394e-09
2.6321e-08
5.98121e-09
1.52493e-08
2.7338e-08
4.59202e-10
-2.11111e-09
1.50952e-09
-5.54154e-09
2.91972e-09
-8.01603e-09
4.56472e-09
-9.87881e-09
6.38344e-09
-1.15154e-08
8.35259e-09
-1.31736e-08
1.0464e-08
-1.49237e-08
1.27084e-08
-1.66841e-08
1.5065e-08
-1.82639e-08
1.74965e-08
-1.94081e-08
1.99477e-08
-1.98372e-08
2.23496e-08
-1.9281e-08
2.46292e-08
-1.7506e-08
2.6726e-08
-1.43336e-08
2.86163e-08
-9.65304e-09
3.03398e-08
-3.42738e-09
3.20195e-08
4.30153e-09
1.34092e-08
3.38596e-08
5.64817e-10
-2.67593e-09
1.84262e-09
-6.81934e-09
3.53174e-09
-9.70515e-09
5.46636e-09
-1.18134e-08
7.56043e-09
-1.36094e-08
9.7749e-09
-1.5388e-08
1.20939e-08
-1.72427e-08
1.45086e-08
-1.90987e-08
1.70073e-08
-2.07626e-08
1.9571e-08
-2.19718e-08
2.2172e-08
-2.24381e-08
2.47763e-08
-2.18854e-08
2.73511e-08
-2.00808e-08
2.98767e-08
-1.68592e-08
3.2363e-08
-1.21393e-08
3.48665e-08
-5.93089e-09
3.75021e-08
1.66593e-09
1.04715e-08
4.04398e-08
6.55542e-10
-3.33147e-09
2.11945e-09
-8.28326e-09
4.02274e-09
-1.16084e-08
6.15665e-09
-1.39473e-08
8.40661e-09
-1.58594e-08
1.07143e-08
-1.76957e-08
1.30545e-08
-1.95829e-08
1.54213e-08
-2.14655e-08
1.78197e-08
-2.31611e-08
2.02619e-08
-2.4414e-08
2.27648e-08
-2.4941e-08
2.53499e-08
-2.44705e-08
2.80454e-08
-2.27762e-08
3.08898e-08
-1.97036e-08
3.39388e-08
-1.51883e-08
3.72712e-08
-9.26325e-09
4.09926e-08
-2.05549e-09
6.23015e-09
4.52339e-08
6.78621e-10
-4.01009e-09
2.1659e-09
-9.77053e-09
4.05963e-09
-1.35022e-08
6.12496e-09
-1.60127e-08
8.22493e-09
-1.79594e-08
1.0283e-08
-1.97537e-08
1.22648e-08
-2.15648e-08
1.41694e-08
-2.337e-08
1.60242e-08
-2.50159e-08
1.78825e-08
-2.62723e-08
1.98198e-08
-2.68783e-08
2.19294e-08
-2.65802e-08
2.43179e-08
-2.51647e-08
2.70994e-08
-2.24852e-08
3.03911e-08
-1.848e-08
3.43086e-08
-1.31807e-08
3.89617e-08
-6.70856e-09
7.39718e-10
4.44521e-08
5.24144e-10
-4.53423e-09
1.62997e-09
-1.08764e-08
2.98223e-09
-1.48544e-08
4.37697e-09
-1.74074e-08
5.68313e-09
-1.92655e-08
6.8184e-09
-2.0889e-08
7.74337e-09
-2.24898e-08
8.46228e-09
-2.40889e-08
9.02457e-09
-2.55782e-08
9.52452e-09
-2.67723e-08
1.00972e-08
-2.7451e-08
1.09111e-08
-2.7394e-08
1.21567e-08
-2.64104e-08
1.40338e-08
-2.43622e-08
1.67366e-08
-2.11828e-08
2.044e-08
-1.68841e-08
2.52879e-08
-1.15565e-08
-5.35459e-09
3.13823e-08
-7.9032e-12
-4.52633e-09
-9.80276e-11
-1.07862e-08
-3.20847e-10
-1.46316e-08
-7.30066e-10
-1.69982e-08
-1.3881e-09
-1.86075e-08
-2.35176e-09
-1.99253e-08
-3.65358e-09
-2.1188e-08
-5.2849e-09
-2.24576e-08
-7.1842e-09
-2.36789e-08
-9.23208e-09
-2.47244e-08
-1.1253e-08
-2.543e-08
-1.30236e-08
-2.56234e-08
-1.42859e-08
-2.51481e-08
-1.4765e-08
-2.38831e-08
-1.41896e-08
-2.17582e-08
-1.23121e-08
-1.87616e-08
-8.92624e-09
-1.49424e-08
-1.03995e-08
-3.88129e-09
-5.43175e-10
-3.98315e-09
-1.7521e-09
-9.57731e-09
-3.36588e-09
-1.30178e-08
-5.26515e-09
-1.50989e-08
-7.4113e-09
-1.64613e-08
-9.80397e-09
-1.75327e-08
-1.24505e-08
-1.85414e-08
-1.53436e-08
-1.95645e-08
-1.84463e-08
-2.05762e-08
-2.16841e-08
-2.14866e-08
-2.49432e-08
-2.21709e-08
-2.80735e-08
-2.24931e-08
-3.08966e-08
-2.2325e-08
-3.32169e-08
-2.15629e-08
-3.48352e-08
-2.01399e-08
-3.55633e-08
-1.80335e-08
-3.52376e-08
-1.52681e-08
-1.191e-08
-3.37271e-08
-8.0165e-10
-3.1815e-09
-2.55621e-09
-7.82275e-09
-4.85118e-09
-1.07228e-08
-7.48441e-09
-1.24657e-08
-1.03674e-08
-1.35783e-08
-1.3471e-08
-1.44291e-08
-1.67894e-08
-1.5223e-08
-2.03155e-08
-1.60385e-08
-2.40239e-08
-1.68678e-08
-2.78614e-08
-1.7649e-08
-3.17434e-08
-1.82889e-08
-3.55544e-08
-1.86822e-08
-3.91533e-08
-1.87261e-08
-4.23821e-08
-1.83341e-08
-4.5076e-08
-1.74459e-08
-4.70756e-08
-1.60339e-08
-4.82379e-08
-1.41058e-08
-1.1704e-08
-4.84439e-08
-8.63143e-10
-2.31836e-09
-2.7546e-09
-5.9313e-09
-5.22506e-09
-8.25238e-09
-8.04605e-09
-9.64472e-09
-1.11072e-08
-1.05171e-08
-1.43645e-08
-1.11718e-08
-1.78057e-08
-1.17818e-08
-2.14254e-08
-1.24188e-08
-2.52082e-08
-1.3085e-08
-2.91185e-08
-1.37387e-08
-3.30953e-08
-1.43121e-08
-3.70518e-08
-1.47257e-08
-4.08783e-08
-1.48997e-08
-4.44483e-08
-1.47641e-08
-4.76273e-08
-1.42669e-08
-5.02822e-08
-1.33791e-08
-5.22901e-08
-1.20979e-08
-1.04479e-08
-5.35463e-08
-7.81996e-10
-1.53637e-09
-2.52295e-09
-4.19034e-09
-4.8176e-09
-5.95772e-09
-7.44734e-09
-7.01499e-09
-1.02985e-08
-7.66599e-09
-1.33225e-08
-8.14776e-09
-1.65057e-08
-8.59865e-09
-1.98458e-08
-9.07863e-09
-2.33365e-08
-9.59436e-09
-2.69566e-08
-1.01186e-08
-3.06649e-08
-1.06038e-08
-3.43981e-08
-1.09924e-08
-3.8073e-08
-1.12248e-08
-4.15902e-08
-1.1247e-08
-4.48407e-08
-1.10163e-08
-4.77139e-08
-1.05059e-08
-5.01047e-08
-9.70702e-09
-8.63176e-09
-5.19208e-08
-6.22686e-10
-9.1368e-10
-2.05812e-09
-2.75491e-09
-3.98569e-09
-4.03015e-09
-6.21372e-09
-4.78695e-09
-8.63583e-09
-5.24388e-09
-1.12055e-08
-5.57809e-09
-1.39105e-08
-5.89361e-09
-1.67525e-08
-6.23668e-09
-1.97321e-08
-6.61479e-09
-2.28397e-08
-7.01092e-09
-2.60503e-08
-7.3933e-09
-2.93204e-08
-7.72221e-09
-3.25895e-08
-7.95569e-09
-3.57821e-08
-8.0544e-09
-3.88126e-08
-7.98584e-09
-4.15911e-08
-7.72736e-09
-4.40299e-08
-7.26827e-09
-6.61278e-09
-4.60489e-08
-4.4081e-10
-4.7287e-10
-1.52349e-09
-1.67222e-09
-3.01958e-09
-2.53407e-09
-4.76902e-09
-3.03751e-09
-6.67843e-09
-3.33447e-09
-8.70721e-09
-3.54931e-09
-1.08462e-08
-3.75464e-09
-1.30998e-08
-3.98304e-09
-1.54738e-08
-4.24084e-09
-1.79667e-08
-4.51798e-09
-2.05655e-08
-4.79448e-09
-2.3243e-08
-5.04479e-09
-2.59573e-08
-5.24132e-09
-2.86543e-08
-5.35749e-09
-3.12696e-08
-5.37048e-09
-3.37337e-08
-5.26325e-09
-3.5976e-08
-5.02595e-09
-4.65852e-09
-3.79303e-08
-2.74358e-10
-1.98512e-10
-1.02699e-09
-9.19587e-10
-2.10858e-09
-1.45248e-09
-3.38992e-09
-1.75617e-09
-4.7939e-09
-1.93049e-09
-6.28792e-09
-2.05529e-09
-7.86609e-09
-2.17647e-09
-9.53456e-09
-2.31457e-09
-1.13014e-08
-2.474e-09
-1.31701e-08
-2.64924e-09
-1.51358e-08
-2.82877e-09
-1.7183e-08
-2.99758e-09
-1.92852e-08
-3.13915e-09
-2.14055e-08
-3.23722e-09
-2.34986e-08
-3.27734e-09
-2.55137e-08
-3.24813e-09
-2.73975e-08
-3.14214e-09
-2.95772e-09
-2.90984e-08
-1.43577e-10
-5.4935e-11
-6.23659e-10
-4.39506e-10
-1.34888e-09
-7.27264e-10
-2.21921e-09
-8.85835e-10
-3.17562e-09
-9.74079e-10
-4.19427e-09
-1.03665e-09
-5.27213e-09
-1.09861e-09
-6.4156e-09
-1.1711e-09
-7.633e-09
-1.2566e-09
-8.9298e-09
-1.35244e-09
-1.03058e-08
-1.45279e-09
-1.17534e-08
-1.54997e-09
-1.32572e-08
-1.63536e-09
-1.47941e-08
-1.70031e-09
-1.63345e-08
-1.73693e-09
-1.78439e-08
-1.73872e-09
-1.9285e-08
-1.70101e-09
-1.6221e-09
-2.06207e-08
-5.50449e-11
1.09837e-13
-3.29516e-10
-1.65035e-10
-7.69566e-10
-2.87214e-10
-1.30365e-09
-3.5175e-10
-1.89131e-09
-3.86425e-10
-2.51715e-09
-4.10805e-10
-3.18019e-09
-4.35571e-10
-3.88591e-09
-4.65383e-10
-4.6412e-09
-5.01307e-10
-5.45133e-09
-5.42305e-10
-6.31807e-09
-5.86058e-10
-7.23858e-09
-6.29458e-10
-8.20496e-09
-6.68979e-10
-9.20425e-09
-7.01013e-10
-1.0219e-08
-7.22189e-10
-1.12281e-08
-7.29615e-10
-1.22081e-08
-7.20976e-10
-6.9507e-10
-1.31352e-08
-7.0448e-12
7.15462e-12
-1.37083e-10
-3.49968e-11
-3.60187e-10
-6.41089e-11
-6.33156e-10
-7.87809e-11
-9.33261e-10
-8.63203e-11
-1.25248e-09
-9.15835e-11
-1.59092e-09
-9.71318e-11
-1.95225e-09
-1.04055e-10
-2.34095e-09
-1.12604e-10
-2.76071e-09
-1.2255e-10
-3.2134e-09
-1.33369e-10
-3.6985e-09
-1.44352e-10
-4.2128e-09
-1.54682e-10
-4.75031e-09
-1.63507e-10
-5.30249e-09
-1.70009e-10
-5.85864e-09
-1.73462e-10
-6.40646e-09
-1.73158e-10
-1.68532e-10
-6.933e-09
7.15462e-12
-2.78422e-11
-9.19511e-11
-1.70732e-10
-2.57052e-10
-3.48636e-10
-4.45768e-10
-5.49823e-10
-6.62427e-10
-7.84976e-10
-9.18345e-10
-1.0627e-09
-1.21738e-09
-1.38089e-09
-1.5509e-09
-1.72436e-09
-1.89752e-09
-2.06605e-09
7.78211e-11
-7.7821e-11
2.7339e-10
-1.95569e-10
5.42034e-10
-2.68643e-10
8.41813e-10
-2.99779e-10
1.13794e-09
-2.96131e-10
1.40181e-09
-2.63866e-10
1.61019e-09
-2.08383e-10
1.74468e-09
-1.34486e-10
1.79109e-09
-4.64115e-11
1.73845e-09
5.26347e-11
1.57898e-09
1.59479e-10
1.30598e-09
2.72996e-10
9.13093e-10
3.92886e-10
3.92791e-10
5.20302e-10
-2.64876e-10
6.57667e-10
-1.07329e-09
8.08418e-10
-2.04977e-09
9.76478e-10
-3.21549e-09
1.16572e-09
-4.59495e-09
1.37946e-09
-6.21493e-09
1.61998e-09
-8.10311e-09
1.88818e-09
-1.02865e-08
2.18338e-09
-1.27898e-08
2.5033e-09
-1.56338e-08
2.84399e-09
-1.88337e-08
3.19989e-09
-2.23975e-08
3.5638e-09
-2.63244e-08
3.92689e-09
-3.06031e-08
4.27874e-09
-3.52106e-08
4.6075e-09
-4.01107e-08
4.90014e-09
-4.52537e-08
5.14293e-09
-5.05756e-08
5.32197e-09
-5.59995e-08
5.42386e-09
-6.14359e-08
5.43643e-09
-6.67854e-08
5.34946e-09
-7.19407e-08
5.15535e-09
-7.67904e-08
4.84966e-09
-8.12219e-08
4.43152e-09
-8.51257e-08
3.90382e-09
-8.8399e-08
3.27321e-09
-9.09487e-08
2.54974e-09
-9.26954e-08
1.74672e-09
-9.35754e-08
8.80005e-10
-9.3552e-08
-2.34131e-11
-9.25783e-08
-9.73756e-10
-9.06634e-08
-1.91483e-09
-8.78241e-08
-2.8393e-09
-8.40962e-08
-3.72793e-09
-7.95333e-08
-4.56293e-09
-7.42042e-08
-5.32909e-09
-6.81903e-08
-6.0139e-09
-6.15825e-08
-6.60775e-09
-5.44785e-08
-7.10403e-09
-4.69794e-08
-7.49906e-09
-3.91876e-08
-7.79186e-09
-3.12038e-08
-7.98383e-09
-2.31255e-08
-8.07821e-09
-1.50459e-08
-8.07968e-09
-7.05226e-09
-7.99361e-09
7.72817e-10
-7.82507e-09
8.35384e-09
-7.58103e-09
1.56201e-08
-7.26625e-09
2.25035e-08
-6.88339e-09
2.89412e-08
-6.43773e-09
3.48754e-08
-5.93423e-09
4.02528e-08
-5.37736e-09
4.50247e-08
-4.77185e-09
4.91479e-08
-4.12326e-09
5.25863e-08
-3.4384e-09
5.53119e-08
-2.72562e-09
5.73069e-08
-1.995e-09
5.85652e-08
-1.2583e-09
5.90945e-08
-5.29261e-10
5.89133e-08
1.81173e-10
5.80624e-08
8.50914e-10
5.65909e-08
1.4715e-09
5.45621e-08
2.02884e-09
5.20502e-08
2.51191e-09
4.91379e-08
2.91223e-09
4.59135e-08
3.2244e-09
4.24672e-08
3.44638e-09
3.88876e-08
3.57954e-09
3.52591e-08
3.62852e-09
3.16583e-08
3.60078e-09
2.81523e-08
3.50603e-09
2.47968e-08
3.35548e-09
2.16357e-08
3.16111e-09
1.87007e-08
2.935e-09
1.6012e-08
2.68868e-09
1.35792e-08
2.43277e-09
1.14026e-08
2.17663e-09
9.47439e-09
1.92822e-09
7.78031e-09
1.69407e-09
6.30106e-09
1.47926e-09
5.01363e-09
1.28743e-09
3.89273e-09
1.1209e-09
2.91205e-09
9.8068e-10
2.04546e-09
8.66588e-10
1.26811e-09
7.77343e-10
5.57404e-10
7.10711e-10
-1.06279e-10
6.63683e-10
-7.38949e-10
6.3267e-10
-1.35273e-09
6.13777e-10
-1.95556e-09
6.02834e-10
-2.55172e-09
5.96163e-10
-3.14222e-09
5.90499e-10
-3.72535e-09
5.83126e-10
-4.29736e-09
5.72008e-10
-4.85317e-09
5.5581e-10
-5.38702e-09
5.33853e-10
-5.89305e-09
5.06032e-10
-6.36576e-09
4.72709e-10
-6.80036e-09
4.34603e-10
-7.19304e-09
3.92677e-10
-7.54108e-09
3.48041e-10
-7.84294e-09
3.01858e-10
-8.09821e-09
2.55269e-10
-8.30754e-09
2.09335e-10
-8.47254e-09
1.64991e-10
-8.59555e-09
1.23018e-10
-8.67958e-09
8.40313e-11
-8.72806e-09
4.84731e-11
-8.74477e-09
1.67155e-11
-8.73345e-09
-1.1326e-11
-8.69789e-09
-3.55602e-11
-8.64204e-09
-5.58509e-11
-8.56939e-09
-7.26486e-11
-8.48327e-09
-8.61182e-11
-8.38673e-09
-9.65434e-11
-8.28249e-09
-1.04234e-10
-8.17298e-09
-1.0951e-10
-8.0603e-09
-1.12686e-10
-7.94623e-09
-1.14066e-10
-7.83229e-09
-1.13936e-10
-7.71974e-09
-1.12559e-10
-7.60956e-09
-1.10174e-10
-7.50257e-09
-1.06991e-10
-7.39937e-09
-1.03199e-10
-7.30041e-09
-9.89602e-11
-7.206e-09
-9.44135e-11
-7.11632e-09
-8.96775e-11
-7.03147e-09
-8.48511e-11
-6.95145e-09
-8.00167e-11
-6.87621e-09
-7.52412e-11
-6.80563e-09
-7.05786e-11
-6.73956e-09
-6.60719e-11
-6.67781e-09
-6.17543e-11
-6.62016e-09
-5.76506e-11
-6.56638e-09
-5.37786e-11
-6.51623e-09
-5.01496e-11
-6.46946e-09
-4.67694e-11
-6.42582e-09
-4.36399e-11
-6.38506e-09
-4.07584e-11
-6.34694e-09
-3.81193e-11
-6.31123e-09
-3.57142e-11
-6.27769e-09
-3.35324e-11
-6.24613e-09
-3.15616e-11
-6.21634e-09
-2.97877e-11
-6.18815e-09
-2.81956e-11
-6.16138e-09
-2.67685e-11
-6.13589e-09
-2.54886e-11
-6.11156e-09
-2.43338e-11
-6.08828e-09
-2.32751e-11
-6.06601e-09
-2.22679e-11
-6.04477e-09
-2.12404e-11
-6.0247e-09
-2.00756e-11
-6.0061e-09
-1.85947e-11
-5.98955e-09
-1.6557e-11
-5.97585e-09
-1.37001e-11
-5.96599e-09
-9.85538e-12
-5.96082e-09
-5.17433e-12
-5.9607e-09
-1.20474e-13
-5.96379e-09
3.08982e-12
-5.96599e-09
2.20195e-12
-5.95866e-09
-7.32322e-12
-5.92809e-09
-3.05752e-11
-5.8519e-09
-7.61931e-11
-5.6978e-09
-1.54097e-10
-5.40913e-09
-2.88674e-10
-6.91725e-10
-4.7174e-09
1.4673e-10
-2.24551e-10
4.64992e-10
-5.13831e-10
8.61961e-10
-6.65612e-10
1.2624e-09
-7.00216e-10
1.60048e-09
-6.34208e-10
1.81792e-09
-4.81307e-10
1.86318e-09
-2.53643e-10
1.69088e-09
3.78076e-11
1.26142e-09
3.83052e-10
5.40382e-10
7.73673e-10
-5.03374e-10
1.20323e-09
-1.89863e-09
1.66825e-09
-3.67438e-09
2.16864e-09
-5.86205e-09
2.70797e-09
-8.49745e-09
3.29307e-09
-1.16222e-08
3.93315e-09
-1.52839e-08
4.63822e-09
-1.95356e-08
5.41736e-09
-2.4433e-08
6.27693e-09
-3.0032e-08
7.21894e-09
-3.63838e-08
8.23995e-09
-4.35308e-08
9.33038e-09
-5.15018e-08
1.04743e-08
-6.03073e-08
1.16495e-08
-6.99352e-08
1.28278e-08
-8.03471e-08
1.39757e-08
-9.14751e-08
1.50549e-08
-1.0322e-07
1.60237e-08
-1.15451e-07
1.68385e-08
-1.28007e-07
1.7456e-08
-1.40699e-07
1.78348e-08
-1.53315e-07
1.79386e-08
-1.65629e-07
1.77377e-08
-1.77404e-07
1.72113e-08
-1.88403e-07
1.63483e-08
-1.98396e-07
1.51488e-08
-2.0717e-07
1.36235e-08
-2.14532e-07
1.17934e-08
-2.20317e-07
9.68873e-09
-2.24392e-07
7.34776e-09
-2.26656e-07
4.81465e-09
-2.27047e-07
2.13748e-09
-2.25539e-07
-6.28353e-10
-2.22128e-07
-3.434e-09
-2.16884e-07
-6.21766e-09
-2.09869e-07
-8.93002e-09
-2.01182e-07
-1.15269e-08
-1.90941e-07
-1.39686e-08
-1.79284e-07
-1.62204e-08
-1.66359e-07
-1.82536e-08
-1.52327e-07
-2.0046e-08
-1.37353e-07
-2.15817e-08
-1.21606e-07
-2.28513e-08
-1.05253e-07
-2.38514e-08
-8.84611e-08
-2.45842e-08
-7.13886e-08
-2.50563e-08
-5.4189e-08
-2.52779e-08
-3.70073e-08
-2.52614e-08
-1.99804e-08
-2.50205e-08
-3.23719e-09
-2.45683e-08
1.30979e-08
-2.39161e-08
2.89031e-08
-2.30714e-08
4.40625e-08
-2.20429e-08
5.8465e-08
-2.08402e-08
7.20011e-08
-1.94704e-08
8.45636e-08
-1.79398e-08
9.60475e-08
-1.62558e-08
1.06352e-07
-1.44276e-08
1.15382e-07
-1.2468e-08
1.2305e-07
-1.0394e-08
1.29283e-07
-8.22794e-09
1.34022e-07
-5.99766e-09
1.3723e-07
-3.73665e-09
1.38894e-07
-1.48307e-09
1.39025e-07
7.19458e-10
1.37675e-07
2.82216e-09
1.3492e-07
4.78365e-09
1.30871e-07
6.56052e-09
1.25667e-07
8.11607e-09
1.19471e-07
9.4204e-09
1.12465e-07
1.04525e-08
1.04843e-07
1.12018e-08
9.68026e-08
1.16689e-08
8.85383e-08
1.18651e-08
8.02326e-08
1.18118e-08
7.20495e-08
1.15386e-08
6.41295e-08
1.10811e-08
5.65863e-08
1.04782e-08
4.95049e-08
9.77005e-09
4.29423e-08
8.99541e-09
3.69286e-08
8.19029e-09
3.14703e-08
7.38649e-09
2.65535e-08
6.61088e-09
2.21479e-08
5.88492e-09
1.82107e-08
5.22462e-09
1.4691e-08
4.64062e-09
1.15331e-08
4.13852e-09
8.68044e-09
3.71927e-09
6.07809e-09
3.3797e-09
3.67564e-09
3.11315e-09
1.4291e-09
2.91023e-09
-6.97818e-10
2.75958e-09
-2.73274e-09
2.6487e-09
-4.69439e-09
2.56449e-09
-6.59302e-09
2.49479e-09
-8.43168e-09
2.42916e-09
-1.02075e-08
2.35896e-09
-1.19133e-08
2.2778e-09
-1.35391e-08
2.1816e-09
-1.50736e-08
2.06841e-09
-1.65058e-08
1.93815e-09
-1.78253e-08
1.79227e-09
-1.90241e-08
1.63332e-09
-2.0096e-08
1.46461e-09
-2.10378e-08
1.28985e-09
-2.18488e-08
1.11285e-09
-2.25308e-08
9.37308e-10
-2.30881e-08
7.66578e-10
-2.35266e-08
6.03565e-10
-2.38543e-08
4.50636e-10
-2.40798e-08
3.09596e-10
-2.4213e-08
1.81687e-10
-2.4264e-08
6.76354e-11
-2.4243e-08
-3.23254e-11
-2.41601e-08
-1.1846e-10
-2.40249e-08
-1.91045e-10
-2.38465e-08
-2.50969e-10
-2.36335e-08
-2.99141e-10
-2.33935e-08
-3.36602e-10
-2.31332e-08
-3.64461e-10
-2.28589e-08
-3.83846e-10
-2.25757e-08
-3.95862e-10
-2.22882e-08
-4.01567e-10
-2.20002e-08
-4.01951e-10
-2.17148e-08
-3.97924e-10
-2.14347e-08
-3.90309e-10
-2.11619e-08
-3.79841e-10
-2.08979e-08
-3.67168e-10
-2.0644e-08
-3.52855e-10
-2.0401e-08
-3.37388e-10
-2.01695e-08
-3.21182e-10
-1.99498e-08
-3.04586e-10
-1.97419e-08
-2.87894e-10
-1.95458e-08
-2.71345e-10
-1.93612e-08
-2.55136e-10
-1.91879e-08
-2.39424e-10
-1.90253e-08
-2.24331e-10
-1.8873e-08
-2.0995e-10
-1.87304e-08
-1.9635e-10
-1.8597e-08
-1.83576e-10
-1.84721e-08
-1.71654e-10
-1.83552e-08
-1.60596e-10
-1.82455e-08
-1.50395e-10
-1.81426e-08
-1.41039e-10
-1.80458e-08
-1.32501e-10
-1.79546e-08
-1.24747e-10
-1.78684e-08
-1.17739e-10
-1.77868e-08
-1.11429e-10
-1.77092e-08
-1.0577e-10
-1.76353e-08
-1.00705e-10
-1.75646e-08
-9.61753e-11
-1.74968e-08
-9.2106e-11
-1.74317e-08
-8.83987e-11
-1.73691e-08
-8.49033e-11
-1.73089e-08
-8.13778e-11
-1.72516e-08
-7.7437e-11
-1.71977e-08
-7.2506e-11
-1.71484e-08
-6.5836e-11
-1.71054e-08
-5.66618e-11
-1.70707e-08
-4.46152e-11
-1.70454e-08
-3.04516e-11
-1.70285e-08
-1.70005e-11
-1.70149e-08
-1.05566e-11
-1.69916e-08
-2.10305e-11
-1.69363e-08
-6.26892e-11
-1.6813e-08
-1.53812e-10
-1.65706e-08
-3.18592e-10
-1.61371e-08
-5.87612e-10
-1.53995e-08
-1.02632e-09
-1.88358e-09
-1.42076e-08
1.22719e-10
-3.47271e-10
3.54565e-10
-7.45676e-10
5.86998e-10
-8.98045e-10
7.304e-10
-8.43618e-10
7.04781e-10
-6.08589e-10
4.36289e-10
-2.12815e-10
-1.4419e-10
3.26836e-10
-1.10123e-09
9.94849e-10
-2.49531e-09
1.77714e-09
-4.38318e-09
2.66154e-09
-6.81905e-09
3.6391e-09
-9.85618e-09
4.70539e-09
-1.35489e-08
5.86138e-09
-1.79546e-08
7.11363e-09
-2.31348e-08
8.4733e-09
-2.91557e-08
9.95404e-09
-3.60864e-08
1.15689e-08
-4.39957e-08
1.33267e-08
-5.29474e-08
1.52286e-08
-6.29936e-08
1.72652e-08
-7.41682e-08
1.94145e-08
-8.64789e-08
2.16411e-08
-9.99012e-08
2.38966e-08
-1.14372e-07
2.61204e-08
-1.29786e-07
2.82419e-08
-1.45994e-07
3.01831e-08
-1.62801e-07
3.1862e-08
-1.79974e-07
3.31966e-08
-1.97245e-07
3.41096e-08
-2.14321e-07
3.45325e-08
-2.30896e-07
3.44101e-08
-2.46661e-07
3.37036e-08
-2.61317e-07
3.23929e-08
-2.74583e-07
3.04773e-08
-2.8621e-07
2.79756e-08
-2.95985e-07
2.49239e-08
-3.03735e-07
2.13739e-08
-3.09332e-07
1.73896e-08
-3.12688e-07
1.30449e-08
-3.13759e-07
8.41948e-09
-3.12542e-07
3.59688e-09
-3.09067e-07
-1.33718e-09
-3.03405e-07
-6.29009e-09
-2.95656e-07
-1.11837e-08
-2.85927e-07
-1.59467e-08
-2.74343e-07
-2.05134e-08
-2.61045e-07
-2.48247e-08
-2.46185e-07
-2.88286e-08
-2.29924e-07
-3.24814e-08
-2.1243e-07
-3.57478e-08
-1.93874e-07
-3.86018e-08
-1.7443e-07
-4.10263e-08
-1.54267e-07
-4.30136e-08
-1.33555e-07
-4.4564e-08
-1.12453e-07
-4.56856e-08
-9.11171e-08
-4.63925e-08
-6.96918e-08
-4.67031e-08
-4.83146e-08
-4.66386e-08
-2.71145e-08
-4.62206e-08
-6.21333e-09
-4.54695e-08
1.42718e-08
-4.44012e-08
3.42253e-08
-4.3025e-08
5.35319e-08
-4.13495e-08
7.20757e-08
-3.93839e-08
8.97384e-08
-3.71331e-08
1.06399e-07
-3.46003e-08
1.21933e-07
-3.17899e-08
1.36214e-07
-2.87091e-08
1.49117e-07
-2.53702e-08
1.60515e-07
-2.17929e-08
1.70293e-07
-1.80054e-08
1.78341e-07
-1.40462e-08
1.84569e-07
-9.9644e-09
1.88906e-07
-5.81956e-09
1.91306e-07
-1.68106e-09
1.91757e-07
2.37105e-09
1.90287e-07
6.2536e-09
1.86966e-07
9.88149e-09
1.81907e-07
1.31751e-08
1.75265e-07
1.6063e-08
1.67231e-07
1.84864e-08
1.5803e-07
2.04024e-08
1.47911e-07
2.17881e-08
1.37134e-07
2.26419e-08
1.25962e-07
2.29838e-08
1.14647e-07
2.28539e-08
1.03419e-07
2.23088e-08
9.24797e-08
2.14178e-08
8.19923e-08
2.02574e-08
7.2081e-08
1.89067e-08
6.28292e-08
1.74421e-08
5.42819e-08
1.59338e-08
4.64495e-08
1.44432e-08
3.93139e-08
1.30206e-08
3.28339e-08
1.17046e-08
2.69526e-08
1.05219e-08
2.16031e-08
9.48801e-09
1.67145e-08
8.6079e-09
1.22166e-08
7.8776e-09
8.04414e-09
7.28559e-09
4.13985e-09
6.81451e-09
4.56432e-10
6.443e-09
-3.04246e-09
6.14759e-09
-6.38171e-09
5.90374e-09
-9.57507e-09
5.68815e-09
-1.2627e-08
5.48113e-09
-1.55348e-08
5.26669e-09
-1.82902e-08
5.03319e-09
-2.0882e-08
4.77347e-09
-2.32981e-08
4.48448e-09
-2.55267e-08
4.16669e-09
-2.75578e-08
3.82341e-09
-2.93844e-08
3.45996e-09
-3.10028e-08
3.08298e-09
-3.24127e-08
2.69971e-09
-3.36173e-08
2.31747e-09
-3.46231e-08
1.94317e-09
-3.54396e-08
1.583e-09
-3.60782e-08
1.24217e-09
-3.65524e-08
9.24827e-10
-3.68768e-08
6.33999e-10
-3.70667e-08
3.71628e-10
-3.71377e-08
1.38664e-10
-3.71052e-08
-6.4823e-11
-3.69842e-08
-2.39516e-10
-3.67886e-08
-3.86632e-10
-3.65317e-08
-5.07899e-10
-3.62255e-08
-6.05334e-10
-3.58809e-08
-6.81144e-10
-3.55078e-08
-7.37622e-10
-3.51145e-08
-7.77069e-10
-3.47087e-08
-8.01721e-10
-3.42965e-08
-8.13705e-10
-3.38835e-08
-8.15001e-10
-3.3474e-08
-8.07423e-10
-3.30717e-08
-7.92614e-10
-3.26795e-08
-7.72035e-10
-3.22997e-08
-7.46976e-10
-3.1934e-08
-7.18562e-10
-3.15836e-08
-6.87765e-10
-3.12494e-08
-6.55415e-10
-3.09317e-08
-6.22217e-10
-3.06309e-08
-5.88759e-10
-3.03467e-08
-5.55529e-10
-3.00789e-08
-5.22928e-10
-2.9827e-08
-4.91278e-10
-2.95906e-08
-4.6083e-10
-2.93687e-08
-4.31782e-10
-2.91608e-08
-4.04274e-10
-2.8966e-08
-3.78406e-10
-2.87834e-08
-3.54237e-10
-2.86122e-08
-3.31795e-10
-2.84515e-08
-3.11077e-10
-2.83005e-08
-2.92058e-10
-2.81583e-08
-2.74693e-10
-2.80241e-08
-2.5892e-10
-2.78972e-08
-2.44664e-10
-2.77768e-08
-2.31838e-10
-2.76622e-08
-2.20348e-10
-2.75528e-08
-2.1009e-10
-2.7448e-08
-2.00947e-10
-2.73474e-08
-1.92779e-10
-2.72504e-08
-1.85394e-10
-2.71568e-08
-1.78506e-10
-2.70665e-08
-1.71657e-10
-2.69798e-08
-1.64125e-10
-2.68975e-08
-1.54863e-10
-2.68207e-08
-1.42548e-10
-2.67515e-08
-1.25932e-10
-2.66914e-08
-1.04679e-10
-2.66411e-08
-8.08052e-11
-2.65974e-08
-6.06331e-11
-2.65511e-08
-5.68272e-11
-2.64826e-08
-8.95444e-11
-2.63588e-08
-1.86485e-10
-2.61308e-08
-3.81861e-10
-2.57327e-08
-7.16678e-10
-2.50777e-08
-1.24262e-09
-2.40721e-08
-2.03186e-09
-3.24079e-09
-2.27149e-08
2.96746e-11
-3.76945e-10
9.27069e-12
-7.25272e-10
-1.57529e-10
-7.31246e-10
-5.56866e-10
-4.44281e-10
-1.27105e-09
1.05593e-10
-2.37943e-09
8.95565e-10
-3.9615e-09
1.90891e-09
-6.09522e-09
3.12856e-09
-8.85711e-09
4.53903e-09
-1.23224e-08
6.12682e-09
-1.65655e-08
7.88219e-09
-2.16609e-08
9.80082e-09
-2.76844e-08
1.18849e-08
-3.47133e-08
1.41425e-08
-4.28259e-08
1.65859e-08
-5.20986e-08
1.92268e-08
-6.26016e-08
2.20719e-08
-7.43919e-08
2.51169e-08
-8.75049e-08
2.83416e-08
-1.01946e-07
3.17059e-08
-1.1768e-07
3.51488e-08
-1.34627e-07
3.85882e-08
-1.52655e-07
4.19241e-08
-1.71576e-07
4.50422e-08
-1.91154e-07
4.78199e-08
-2.11104e-07
5.0133e-08
-2.31105e-07
5.18627e-08
-2.50812e-07
5.29032e-08
-2.6987e-07
5.3168e-08
-2.87932e-07
5.2595e-08
-3.04672e-07
5.11499e-08
-3.19796e-07
4.88276e-08
-3.33054e-07
4.56509e-08
-3.44245e-07
4.16678e-08
-3.53217e-07
3.69477e-08
-3.5987e-07
3.15769e-08
-3.64149e-07
2.56531e-08
-3.66042e-07
1.9282e-08
-3.65569e-07
1.25726e-08
-3.62785e-07
5.63483e-09
-3.57766e-07
-1.42202e-09
-3.50615e-07
-8.48803e-09
-3.41436e-07
-1.54692e-08
-3.30338e-07
-2.22816e-08
-3.17441e-07
-2.88437e-08
-3.02875e-07
-3.50798e-08
-2.86778e-07
-4.09215e-08
-2.69297e-07
-4.63091e-08
-2.50586e-07
-5.11926e-08
-2.30802e-07
-5.55323e-08
-2.10103e-07
-5.92999e-08
-1.88651e-07
-6.24787e-08
-1.66601e-07
-6.50634e-08
-1.44105e-07
-6.70598e-08
-1.21308e-07
-6.84832e-08
-9.83439e-08
-6.93565e-08
-7.53391e-08
-6.9708e-08
-5.24092e-08
-6.95684e-08
-2.96614e-08
-6.89684e-08
-7.19583e-09
-6.79351e-08
1.48935e-08
-6.64905e-08
3.65138e-08
-6.46453e-08
5.75675e-08
-6.24032e-08
7.79517e-08
-5.97681e-08
9.75579e-08
-5.67393e-08
1.16271e-07
-5.33131e-08
1.33967e-07
-4.9486e-08
1.50516e-07
-4.52581e-08
1.65782e-07
-4.06361e-08
1.79625e-07
-3.5636e-08
1.91906e-07
-3.02861e-08
2.02488e-07
-2.46287e-08
2.11245e-07
-1.87214e-08
2.18063e-07
-1.26377e-08
2.22849e-07
-6.46679e-09
2.25532e-07
-3.116e-10
2.26075e-07
5.71033e-09
2.24484e-07
1.14728e-08
2.20809e-07
1.68496e-08
2.15151e-07
2.17208e-08
2.0766e-07
2.59778e-08
1.98532e-07
2.95301e-08
1.88008e-07
3.23126e-08
1.7636e-07
3.429e-08
1.63882e-07
3.5461e-08
1.50878e-07
3.5858e-08
1.37642e-07
3.55452e-08
1.24446e-07
3.46136e-08
1.1153e-07
3.31738e-08
9.90891e-08
3.13474e-08
8.72721e-08
2.9259e-08
7.61778e-08
2.70281e-08
6.58587e-08
2.47624e-08
5.63261e-08
2.25532e-08
4.75579e-08
2.04728e-08
3.95069e-08
1.85729e-08
3.21092e-08
1.68856e-08
2.52927e-08
1.54244e-08
1.89834e-08
1.41869e-08