/*--------------------------------*- C++ -*----------------------------------*\
  =========                 |
  \\      /  F ield         | OpenFOAM: The Open Source CFD Toolbox
   \\    /   O peration     | Website:  https://openfoam.org
    \\  /    A nd           | Version:  8
     \\/     M anipulation  |
\*---------------------------------------------------------------------------*/
FoamFile
{
    version     2.0;
    format      ascii;
    class       volVectorField;
    location    "0.44";
    object      U;
}
// * * * * * * * * * * * * * * * * * * * * * * * * * * * * * * * * * * * * * //

dimensions      [0 1 -1 0 0 0 0];

internalField   nonuniform List<vector> 
12225
(
(-1.49508e-05 2.06174e-06 0)
(-1.04632e-05 -8.16471e-07 0)
(4.21551e-05 -2.1865e-06 0)
(0.000124023 -3.30155e-06 0)
(0.000230115 -4.32776e-06 0)
(0.000361017 -5.57313e-06 0)
(0.000521891 -7.15981e-06 0)
(0.000718306 -9.10877e-06 0)
(0.000953768 -1.13362e-05 0)
(0.00122808 -1.37033e-05 0)
(0.00153706 -1.60911e-05 0)
(0.00187373 -1.85334e-05 0)
(0.00223147 -2.14572e-05 0)
(0.0026084 -2.59864e-05 0)
(0.00301227 -3.34409e-05 0)
(0.00346479 -3.85445e-05 0)
(0.00398048 -8.4272e-05 0)
(0.00196984 0.00149274 0)
(-3.12022e-05 5.91623e-06 0)
(-5.76907e-08 -1.40481e-05 0)
(0.000161417 -3.19001e-05 0)
(0.000407556 -4.63548e-05 0)
(0.000725115 -6.06677e-05 0)
(0.0011162 -7.77482e-05 0)
(0.00159463 -9.90683e-05 0)
(0.00217487 -0.000124588 0)
(0.00286503 -0.000152957 0)
(0.00366218 -0.000181964 0)
(0.00455125 -0.000209267 0)
(0.00550735 -0.000233438 0)
(0.00650141 -0.00025513 0)
(0.0075047 -0.000277248 0)
(0.00848441 -0.000298054 0)
(0.00934249 -0.000264298 0)
(0.00979733 0.000117153 0)
(0.00576999 0.0036225 0)
(-3.71224e-05 8.55172e-06 0)
(3.89332e-05 -4.56545e-05 0)
(0.000316913 -9.73308e-05 0)
(0.000732393 -0.000140147 0)
(0.00126568 -0.000183107 0)
(0.0019206 -0.000234017 0)
(0.00271813 -0.000296825 0)
(0.00367948 -0.0003711 0)
(0.00481497 -0.00045261 0)
(0.00611653 -0.000534495 0)
(0.00755529 -0.000609082 0)
(0.00908377 -0.000670097 0)
(0.0106407 -0.00071405 0)
(0.0121496 -0.000736423 0)
(0.0134949 -0.000705523 0)
(0.0143953 -0.000448954 0)
(0.0142606 0.000776652 0)
(0.0094146 0.00634975 0)
(-3.52015e-05 5.76853e-06 0)
(0.000102743 -0.000101934 0)
(0.000504848 -0.000206684 0)
(0.00109347 -0.000295175 0)
(0.00184403 -0.000384692 0)
(0.00276205 -0.0004902 0)
(0.00387391 -0.000619145 0)
(0.00520531 -0.000770137 0)
(0.00676633 -0.000934028 0)
(0.00854138 -0.00109609 0)
(0.0104852 -0.00123918 0)
(0.0125237 -0.00134698 0)
(0.0145557 -0.00140419 0)
(0.016444 -0.0013845 0)
(0.0179763 -0.00119683 0)
(0.0187205 -0.000503277 0)
(0.0179558 0.00185127 0)
(0.0130218 0.00931162 0)
(-2.75955e-05 -7.46462e-06 0)
(0.000187047 -0.000189209 0)
(0.000720103 -0.000366476 0)
(0.00148386 -0.000518825 0)
(0.00244987 -0.000673894 0)
(0.00362509 -0.000855773 0)
(0.00503938 -0.00107613 0)
(0.00672054 -0.00133175 0)
(0.00867614 -0.00160622 0)
(0.0108812 -0.00187323 0)
(0.0132722 -0.00210115 0)
(0.0157463 -0.00225681 0)
(0.0181592 -0.00230307 0)
(0.0203115 -0.00217604 0)
(0.0219063 -0.00170437 0)
(0.022435 -0.00038537 0)
(0.0212161 0.00318123 0)
(0.0166186 0.0121498 0)
(-1.60731e-05 -3.59324e-05 0)
(0.000287048 -0.000314303 0)
(0.000956181 -0.000584022 0)
(0.00189459 -0.000819117 0)
(0.00307028 -0.00105948 0)
(0.00449091 -0.00134 0)
(0.00618786 -0.00167697 0)
(0.00818874 -0.00206427 0)
(0.0104967 -0.00247556 0)
(0.0130762 -0.00286888 0)
(0.0158453 -0.0031925 0)
(0.0186728 -0.00338875 0)
(0.0213741 -0.00338825 0)
(0.0236967 -0.00307701 0)
(0.0252892 -0.00219806 0)
(0.0256409 -0.000122267 0)
(0.0242122 0.00461711 0)
(0.0201886 0.0147146 0)
(-2.11623e-06 -8.41029e-05 0)
(0.000397551 -0.000484421 0)
(0.00120528 -0.000867135 0)
(0.00231472 -0.00120424 0)
(0.00368974 -0.00154982 0)
(0.00533763 -0.00195101 0)
(0.00728924 -0.00242888 0)
(0.00956995 -0.00297308 0)
(0.0121772 -0.0035446 0)
(0.0150648 -0.00408162 0)
(0.0181341 -0.00450653 0)
(0.0212295 -0.00472973 0)
(0.0241342 -0.00464094 0)
(0.0265608 -0.00406988 0)
(0.0281386 -0.00268373 0)
(0.0284106 0.000216978 0)
(0.0270148 0.00602847 0)
(0.0236942 0.016941 0)
(1.30301e-05 -0.00015606 0)
(0.000513128 -0.000706653 0)
(0.00145853 -0.00122341 0)
(0.00273155 -0.00168161 0)
(0.00429051 -0.00215166 0)
(0.00614088 -0.0026942 0)
(0.00831095 -0.00333501 0)
(0.0108222 -0.00405817 0)
(0.013666 -0.00480933 0)
(0.0167866 -0.00550284 0)
(0.0200723 -0.00603005 0)
(0.0233506 -0.00626324 0)
(0.0263854 -0.00604588 0)
(0.0288758 -0.00515239 0)
(0.0304647 -0.00319431 0)
(0.0307799 0.000541021 0)
(0.0296252 0.00729356 0)
(0.0270763 0.0187732 0)
(2.83411e-05 -0.000255345 0)
(0.000628326 -0.000987505 0)
(0.00170628 -0.00165963 0)
(0.00313099 -0.00225719 0)
(0.00485316 -0.00286927 0)
(0.00687463 -0.00357118 0)
(0.00921928 -0.00439329 0)
(0.0119036 -0.00531289 0)
(0.014913 -0.00625802 0)
(0.0181853 -0.00711606 0)
(0.0216013 -0.00774329 0)
(0.0249811 -0.00797008 0)
(0.0280847 -0.00759231 0)
(0.0306194 -0.00633613 0)
(0.0322664 -0.00378208 0)
(0.0327468 0.000748267 0)
(0.0319941 0.00829722 0)
(0.0302514 0.0201521 0)
(4.2974e-05 -0.000384703 0)
(0.000737831 -0.00133235 0)
(0.00193844 -0.00218117 0)
(0.00349798 -0.00293478 0)
(0.00535709 -0.00370367 0)
(0.00751201 -0.00457894 0)
(0.00998065 -0.00559555 0)
(0.0127739 -0.00672317 0)
(0.0158727 -0.00787077 0)
(0.0192119 -0.00889676 0)
(0.0226722 -0.0096204 0)
(0.0260773 -0.00982908 0)
(0.0291987 -0.00927376 0)
(0.0317705 -0.00764317 0)
(0.0335266 -0.00451051 0)
(0.0342746 0.000735913 0)
(0.0340357 0.00893227 0)
(0.0331122 0.0210134 0)
(5.62642e-05 -0.000546171 0)
(0.000836587 -0.00174489 0)
(0.00214469 -0.00279133 0)
(0.00381672 -0.00371536 0)
(0.00578094 -0.00465191 0)
(0.00802604 -0.00570916 0)
(0.0105627 -0.00692691 0)
(0.0133962 -0.00826705 0)
(0.016505 -0.00961913 0)
(0.0198259 -0.0108124 0)
(0.0232468 -0.0116294 0)
(0.0266065 -0.0118166 0)
(0.0297012 -0.0110857 0)
(0.0323052 -0.00910022 0)
(0.0342107 -0.005445 0)
(0.0352977 0.000408173 0)
(0.035637 0.00910209 0)
(0.035528 0.0212889 0)
(6.69166e-05 -0.000724664 0)
(0.000912989 -0.00218601 0)
(0.00230036 -0.0034319 0)
(0.00404974 -0.0045225 0)
(0.00607615 -0.00561812 0)
(0.00835981 -0.00684408 0)
(0.010904 -0.00824531 0)
(0.0137096 -0.00977722 0)
(0.0167548 -0.0113126 0)
(0.0199824 -0.0126555 0)
(0.0232942 -0.0135573 0)
(0.0265509 -0.0137311 0)
(0.0295814 -0.0128597 0)
(0.0322036 -0.0105939 0)
(0.0342623 -0.00654064 0)
(0.0356888 -0.000251901 0)
(0.0365754 0.00876182 0)
(0.0371914 0.0209488 0)
(7.65513e-05 -0.000926978 0)
(0.000973817 -0.00267566 0)
(0.00241864 -0.0041328 0)
(0.00421833 -0.00539428 0)
(0.00627341 -0.00664795 0)
(0.00855471 -0.00803741 0)
(0.011058 -0.00961368 0)
(0.0137802 -0.0113271 0)
(0.0167013 -0.0130357 0)
(0.0197738 -0.0145215 0)
(0.0229176 -0.0155089 0)
(0.0260215 -0.0156829 0)
(0.0289523 -0.0147044 0)
(0.031574 -0.0122188 0)
(0.0337804 -0.00786008 0)
(0.0355413 -0.00125535 0)
(0.0369523 0.00795449 0)
(0.0382458 0.0200579 0)
(8.58623e-05 -0.00118746 0)
(0.00101923 -0.00329876 0)
(0.00249584 -0.00501106 0)
(0.0043119 -0.0064705 0)
(0.0063511 -0.00789923 0)
(0.00857298 -0.00946324 0)
(0.0109649 -0.0112223 0)
(0.0135202 -0.0131237 0)
(0.0162233 -0.0150129 0)
(0.0190411 -0.016652 0)
(0.0219192 -0.0177413 0)
(0.0247835 -0.0179425 0)
(0.0275474 -0.0168998 0)
(0.0301277 -0.0142602 0)
(0.0324678 -0.00968954 0)
(0.0345696 -0.00288905 0)
(0.0365217 0.00638391 0)
(0.0385142 0.018284 0)
(9.29163e-05 -0.00151432 0)
(0.00103228 -0.00407315 0)
(0.00249213 -0.0060857 0)
(0.00426319 -0.00776494 0)
(0.00621332 -0.00937545 0)
(0.00828972 -0.0111103 0)
(0.0104711 -0.0130424 0)
(0.0127484 -0.0151203 0)
(0.0151129 -0.0171823 0)
(0.0175506 -0.0189773 0)
(0.0200388 -0.0201899 0)
(0.0225472 -0.0204663 0)
(0.0250422 -0.0194432 0)
(0.0274958 -0.016775 0)
(0.0298997 -0.0121601 0)
(0.0322821 -0.00536328 0)
(0.0347209 0.00376494 0)
(0.0373648 0.0152762 0)
(9.46053e-05 -0.00190746 0)
(0.000986036 -0.00499481 0)
(0.00234487 -0.00734485 0)
(0.00396769 -0.00925205 0)
(0.00571357 -0.0110318 0)
(0.00751905 -0.0129094 0)
(0.00935529 -0.0149767 0)
(0.0112117 -0.0171913 0)
(0.0130886 -0.0193943 0)
(0.014993 -0.021334 0)
(0.0169367 -0.0226923 0)
(0.018935 -0.0231142 0)
(0.0210076 -0.0222396 0)
(0.0231806 -0.0197358 0)
(0.0254903 -0.0153291 0)
(0.0279886 -0.00882983 0)
(0.0307477 -0.000149909 0)
(0.0338805 0.0106942 0)
(8.61558e-05 -0.00234476 0)
(0.000838757 -0.00600679 0)
(0.00195871 -0.0087037 0)
(0.00326855 -0.0108195 0)
(0.00463492 -0.0127256 0)
(0.00599048 -0.0146834 0)
(0.00730175 -0.0168099 0)
(0.0085579 -0.0190825 0)
(0.00976746 -0.0213599 0)
(0.0109566 -0.0234071 0)
(0.0121676 -0.0249228 0)
(0.0134561 -0.0255691 0)
(0.0148881 -0.0250031 0)
(0.0165367 -0.0229107 0)
(0.0184777 -0.0190391 0)
(0.0207874 -0.0132229 0)
(0.023542 -0.00540029 0)
(0.0268354 0.00438484 0)
(6.01104e-05 -0.00275429 0)
(0.00053038 -0.00693703 0)
(0.00120086 -0.00992326 0)
(0.00195181 -0.0121788 0)
(0.00268551 -0.0141253 0)
(0.00334435 -0.016058 0)
(0.00389604 -0.0181232 0)
(0.00433053 -0.0203286 0)
(0.00466136 -0.0225667 0)
(0.00492652 -0.0246402 0)
(0.00518747 -0.0262875 0)
(0.0055262 -0.0272095 0)
(0.00604015 -0.0270983 0)
(0.00683543 -0.0256685 0)
(0.0080186 -0.0226864 0)
(0.0096897 -0.017995 0)
(0.0119395 -0.0115299 0)
(0.0148625 -0.00332417 0)
(3.81422e-06 -0.00296531 0)
(-9.23825e-06 -0.00738813 0)
(-7.13775e-05 -0.0104651 0)
(-0.00020126 -0.0127026 0)
(-0.000424202 -0.0145424 0)
(-0.000768866 -0.0162965 0)
(-0.00125755 -0.0181344 0)
(-0.00189772 -0.0200984 0)
(-0.00267554 -0.0221267 0)
(-0.00355214 -0.0240771 0)
(-0.00446296 -0.0257485 0)
(-0.00531982 -0.0269027 0)
(-0.00601578 -0.0272874 0)
(-0.00643235 -0.0266619 0)
(-0.00644851 -0.0248211 0)
(-0.00594919 -0.0216167 0)
(-0.00482755 -0.0169723 0)
(-0.00298293 -0.0108892 0)
(-6.34834e-05 -0.00274612 0)
(-0.00061164 -0.00684529 0)
(-0.00146063 -0.00967379 0)
(-0.00251527 -0.0116865 0)
(-0.00371923 -0.0132865 0)
(-0.00506542 -0.0147659 0)
(-0.00656117 -0.0162944 0)
(-0.00820986 -0.0179328 0)
(-0.0100003 -0.0196546 0)
(-0.0119005 -0.0213651 0)
(-0.0138544 -0.0229191 0)
(-0.0157827 -0.0241373 0)
(-0.0175862 -0.0248242 0)
(-0.0191514 -0.0247876 0)
(-0.0203592 -0.0238573 0)
(-0.0210932 -0.0219025 0)
(-0.0212403 -0.0188442 0)
(-0.0206948 -0.0146631 0)
(-0.000106477 -0.00229934 0)
(-0.00103409 -0.00581385 0)
(-0.00243997 -0.00825677 0)
(-0.00414657 -0.00997905 0)
(-0.00603945 -0.0113198 0)
(-0.00808478 -0.0125356 0)
(-0.0102772 -0.0137825 0)
(-0.0126163 -0.0151263 0)
(-0.0150935 -0.0165605 0)
(-0.0176831 -0.0180221 0)
(-0.0203387 -0.0194055 0)
(-0.0229913 -0.0205752 0)
(-0.0255521 -0.0213799 0)
(-0.0279171 -0.0216666 0)
(-0.0299746 -0.0212964 0)
(-0.0316128 -0.020157 0)
(-0.0327204 -0.0181742 0)
(-0.0331943 -0.0153193 0)
(-0.000127758 -0.00175197 0)
(-0.0012773 -0.00456304 0)
(-0.00302145 -0.00655605 0)
(-0.00512982 -0.00795559 0)
(-0.00745156 -0.00902788 0)
(-0.00993398 -0.00998708 0)
(-0.0125621 -0.0109684 0)
(-0.0153332 -0.0120349 0)
(-0.018242 -0.0131914 0)
(-0.02127 -0.0143979 0)
(-0.0243802 -0.0155797 0)
(-0.0275145 -0.0166371 0)
(-0.0305946 -0.0174553 0)
(-0.0335265 -0.0179159 0)
(-0.0362064 -0.0179076 0)
(-0.0385285 -0.0173369 0)
(-0.0403855 -0.0161371 0)
(-0.0416776 -0.0142761 0)
(-0.000125378 -0.00121616 0)
(-0.00133117 -0.00333074 0)
(-0.00318931 -0.00487455 0)
(-0.00544564 -0.00595481 0)
(-0.00793249 -0.00677018 0)
(-0.0105853 -0.00749194 0)
(-0.0133831 -0.00823131 0)
(-0.016323 -0.00904348 0)
(-0.019404 -0.00993895 0)
(-0.0226158 -0.0108936 0)
(-0.025931 -0.0118566 0)
(-0.0293028 -0.0127571 0)
(-0.0326646 -0.0135113 0)
(-0.0359328 -0.0140302 0)
(-0.0390121 -0.014228 0)
(-0.0418029 -0.0140295 0)
(-0.0442026 -0.0133771 0)
(-0.0461143 -0.0122389 0)
(-0.000102995 -0.00076263 0)
(-0.00122509 -0.00226368 0)
(-0.00300892 -0.00339865 0)
(-0.00519858 -0.0041871 0)
(-0.00762366 -0.00477238 0)
(-0.0102135 -0.00528577 0)
(-0.0129442 -0.00581383 0)
(-0.0158146 -0.00640124 0)
(-0.0188289 -0.00705978 0)
(-0.0219845 -0.00777603 0)
(-0.0252645 -0.00851706 0)
(-0.0286339 -0.00923491 0)
(-0.0320385 -0.00987128 0)
(-0.0354069 -0.0103626 0)
(-0.0386546 -0.0106459 0)
(-0.0416901 -0.0106636 0)
(-0.0444175 -0.0103693 0)
(-0.0467442 -0.00973415 0)
(-6.75941e-05 -0.000422554 0)
(-0.00101075 -0.0014258 0)
(-0.00258815 -0.00221205 0)
(-0.00455539 -0.00275079 0)
(-0.00674865 -0.00314295 0)
(-0.00909607 -0.00348403 0)
(-0.011574 -0.0038371 0)
(-0.0141837 -0.00423542 0)
(-0.0169344 -0.00468938 0)
(-0.0198303 -0.00519226 0)
(-0.0228642 -0.00572396 0)
(-0.0260124 -0.006254 0)
(-0.029234 -0.00674424 0)
(-0.0324711 -0.00715213 0)
(-0.0356524 -0.00743425 0)
(-0.0386976 -0.00754974 0)
(-0.0415205 -0.00746372 0)
(-0.0440367 -0.00715279 0)
(-2.73057e-05 -0.000196817 0)
(-0.000745124 -0.000821067 0)
(-0.00204102 -0.00132562 0)
(-0.00368936 -0.00166389 0)
(-0.00553976 -0.0019046 0)
(-0.00752417 -0.00211231 0)
(-0.00962161 -0.00232918 0)
(-0.0118362 -0.00257763 0)
(-0.0141802 -0.00286542 0)
(-0.0166634 -0.00318958 0)
(-0.0192859 -0.00353884 0)
(-0.0220343 -0.00389527 0)
(-0.02488 -0.0042359 0)
(-0.0277792 -0.0045345 0)
(-0.0306753 -0.00476361 0)
(-0.0335018 -0.00489664 0)
(-0.0361858 -0.00490988 0)
(-0.0386546 -0.00478632 0)
(9.77384e-06 -6.7727e-05 0)
(-0.000478913 -0.00041919 0)
(-0.00146456 -0.000708916 0)
(-0.00274607 -0.000897342 0)
(-0.00419316 -0.00102805 0)
(-0.00574667 -0.00114005 0)
(-0.00739016 -0.0012583 0)
(-0.00912967 -0.00139604 0)
(-0.010979 -0.00155818 0)
(-0.0129503 -0.00174365 0)
(-0.0150487 -0.00194679 0)
(-0.0172686 -0.00215822 0)
(-0.0195922 -0.00236561 0)
(-0.0219888 -0.00255455 0)
(-0.0244169 -0.00270965 0)
(-0.0268255 -0.00281557 0)
(-0.0291569 -0.0028581 0)
(-0.0313534 -0.00282651 0)
(3.59223e-05 -9.02552e-06 0)
(-0.000251075 -0.000176995 0)
(-0.000928966 -0.000315619 0)
(-0.00183002 -0.000402232 0)
(-0.00285151 -0.000460602 0)
(-0.00394783 -0.000510323 0)
(-0.00510793 -0.000563577 0)
(-0.00633848 -0.000626776 0)
(-0.0076523 -0.000702399 0)
(-0.00906139 -0.000790191 0)
(-0.0105728 -0.000887801 0)
(-0.0121859 -0.000991151 0)
(-0.0138912 -0.00109474 0)
(-0.0156699 -0.00119201 0)
(-0.0174943 -0.00127582 0)
(-0.0193293 -0.00133883 0)
(-0.0211337 -0.00137394 0)
(-0.0228657 -0.00137524 0)
(4.35503e-05 7.4627e-06 0)
(-8.7724e-05 -5.15586e-05 0)
(-0.000477303 -9.83126e-05 0)
(-0.00100562 -0.000125942 0)
(-0.00160542 -0.000143874 0)
(-0.00224804 -0.000159072 0)
(-0.00292771 -0.000175706 0)
(-0.00365 -0.000195932 0)
(-0.00442435 -0.000220615 0)
(-0.00525985 -0.000249747 0)
(-0.00616267 -0.000282653 0)
(-0.00713448 -0.0003181 0)
(-0.00817153 -0.000354375 0)
(-0.00926429 -0.000389393 0)
(-0.0103976 -0.000420821 0)
(-0.0115514 -0.000446201 0)
(-0.0127011 -0.000462915 0)
(-0.0138212 -0.000468117 0)
(2.55428e-05 4.95536e-06 0)
(-3.05572e-06 -3.07771e-06 0)
(-0.000129804 -6.89914e-06 0)
(-0.000304907 -8.90589e-06 0)
(-0.000503467 -1.00841e-05 0)
(-0.000715469 -1.10833e-05 0)
(-0.00093942 -1.22627e-05 0)
(-0.00117786 -1.38019e-05 0)
(-0.00143471 -1.57793e-05 0)
(-0.00171376 -1.82082e-05 0)
(-0.00201785 -2.10515e-05 0)
(-0.00234831 -2.42288e-05 0)
(-0.00270461 -2.76177e-05 0)
(-0.00308419 -3.10602e-05 0)
(-0.00348246 -3.43697e-05 0)
(-0.00389302 -3.736e-05 0)
(-0.00430743 -3.97282e-05 0)
(-0.00471645 -4.07941e-05 0)
(1.99638e-05 -4.56218e-05 -2.86283e-23)
(0.000144527 -0.000109974 3.6197e-23)
(0.000352267 -0.000149961 0)
(0.000611287 -0.000169939 0)
(0.000882926 -0.000175437 0)
(0.00113748 -0.000170526 -3.86056e-23)
(0.00135212 -0.000158525 0)
(0.00150858 -0.000142236 0)
(0.00159242 -0.000123943 0)
(0.0015925 -0.000105388 0)
(0.00150055 -8.76811e-05 5.06653e-23)
(0.00131023 -7.14256e-05 0)
(0.00101585 -5.66236e-05 0)
(0.000611319 -4.26711e-05 0)
(8.88787e-05 -2.84434e-05 0)
(-0.000561911 -1.24398e-05 7.24337e-23)
(-0.00135489 7.04731e-06 0)
(-0.00230756 3.17769e-05 0)
(-0.00344075 6.3382e-05 0)
(-0.00477792 0.000103243 0)
(-0.00634407 0.000152435 0)
(-0.00816438 0.000211734 0)
(-0.0102628 0.000281636 0)
(-0.0126604 0.000362376 1.31875e-22)
(-0.0153742 0.000453915 -1.41034e-22)
(-0.0184155 0.000555881 1.50193e-22)
(-0.0217883 0.000667472 1.59133e-22)
(-0.0254881 0.000787342 0)
(-0.0295002 0.000913488 0)
(-0.0337985 0.00104316 -1.81805e-22)
(-0.038345 0.00117283 -1.8683e-22)
(-0.0430889 0.00129819 0)
(-0.0479668 0.00141424 0)
(-0.0529036 0.00151547 -1.88726e-22)
(-0.057814 0.00159609 0)
(-0.062604 0.00165037 0)
(-0.0671741 0.00167302 1.62551e-22)
(-0.0714224 0.00165962 0)
(-0.0752471 0.00160699 1.25456e-22)
(-0.0785511 0.00151362 2.01186e-22)
(-0.0812442 0.0013798 0)
(-0.0832469 0.00120728 0)
(-0.0844939 0.000998357 0)
(-0.0849367 0.000757771 0)
(-0.0845354 0.000497696 0)
(-0.0832725 0.000220568 -2.53083e-22)
(-0.0811579 -6.47293e-05 -3.46568e-22)
(-0.078215 -0.000348418 -4.41679e-22)
(-0.0744829 -0.000621854 0)
(-0.0700164 -0.000877508 6.30426e-22)
(-0.0648828 -0.00110904 0)
(-0.0591599 -0.00131147 -8.06231e-22)
(-0.0529329 -0.0014813 -8.85212e-22)
(-0.0462919 -0.00161649 0)
(-0.0393291 -0.00171636 0)
(-0.0321369 -0.00178145 0)
(-0.0248055 -0.00181323 -1.1081e-21)
(-0.0174216 -0.00181387 0)
(-0.0100678 -0.00178587 0)
(-0.00282223 -0.0017314 0)
(0.00424156 -0.00165159 0)
(0.0110599 -0.00154853 0)
(0.0175688 -0.00142605 0)
(0.0237064 -0.0012877 0)
(0.0294161 -0.00113617 0)
(0.0346461 -0.000973696 7.9111e-22)
(0.0393484 -0.000802526 0)
(0.0434796 -0.000625126 0)
(0.0470016 -0.000444292 -5.13154e-22)
(0.0498832 -0.000263173 -4.15598e-22)
(0.0521017 -8.52436e-05 0)
(0.0536443 8.57754e-05 2.21456e-22)
(0.0545098 0.000245858 -1.27536e-22)
(0.0547085 0.000391005 0)
(0.0542663 0.000519458 -4.78914e-23)
(0.0532233 0.000627355 0)
(0.0516307 0.000712942 0)
(0.0495513 0.000775473 2.65278e-22)
(0.047057 0.000815002 0)
(0.0442269 0.000832442 -3.72943e-22)
(0.0411435 0.000829542 0)
(0.0378903 0.000808743 4.49477e-22)
(0.0345479 0.000772963 4.76637e-22)
(0.0311916 0.00072537 4.96993e-22)
(0.0278889 0.000669166 1.02227e-21)
(0.0246974 0.000607394 -1.03943e-21)
(0.0216641 0.000542799 0)
(0.0188248 0.000477735 0)
(0.0162042 0.000414132 0)
(0.0138166 0.000353502 -1.0252e-21)
(0.0116668 0.000296986 -1.00777e-21)
(0.00975185 0.000245408 9.87281e-22)
(0.0080615 0.000199335 0)
(0.00658026 0.000159123 -9.41261e-22)
(0.00528844 0.000124949 -9.17479e-22)
(0.0041635 9.68236e-05 -8.94134e-22)
(0.00318126 7.45978e-05 0)
(0.0023171 5.79662e-05 0)
(0.00154703 4.64717e-05 0)
(0.000848696 3.95213e-05 -8.14009e-22)
(0.000202181 3.64082e-05 0)
(-0.000409392 3.63183e-05 0)
(-0.000999313 3.84292e-05 7.70739e-22)
(-0.00157701 4.18948e-05 0)
(-0.0021482 4.602e-05 0)
(-0.00271527 5.0176e-05 7.39028e-22)
(-0.00327778 5.38426e-05 0)
(-0.00383298 5.66368e-05 0)
(-0.00437652 5.83111e-05 -7.13552e-22)
(-0.00490306 5.87401e-05 -7.05287e-22)
(-0.0054069 5.79028e-05 0)
(-0.00588245 5.58621e-05 6.8802e-22)
(-0.00632466 5.27446e-05 0)
(-0.00672925 4.87213e-05 -6.6908e-22)
(-0.00709296 4.39898e-05 0)
(-0.00741362 3.87586e-05 -6.48149e-22)
(-0.00769016 3.32336e-05 -6.36971e-22)
(-0.00792259 2.76077e-05 0)
(-0.00811189 2.20525e-05 0)
(-0.00825985 1.67128e-05 0)
(-0.00836896 1.1703e-05 0)
(-0.00844223 7.10121e-06 0)
(-0.00848308 2.96601e-06 0)
(-0.00849507 -5.51382e-07 0)
(-0.00848177 -3.52946e-06 -5.39154e-22)
(-0.00844688 -6.0799e-06 5.27023e-22)
(-0.00839396 -8.15931e-06 0)
(-0.00832629 -9.77647e-06 0)
(-0.00824692 -1.09766e-05 0)
(-0.00815864 -1.18078e-05 0)
(-0.00806393 -1.23181e-05 9.41308e-22)
(-0.00796498 -1.25545e-05 0)
(-0.00786368 -1.25617e-05 -9.0103e-22)
(-0.00776164 -1.2381e-05 8.81969e-22)
(-0.0076602 -1.20503e-05 0)
(-0.00756048 -1.1603e-05 0)
(-0.00746335 -1.10683e-05 0)
(-0.00736953 -1.04716e-05 -8.12479e-22)
(-0.00727954 -9.83429e-06 -7.96648e-22)
(-0.00719377 -9.1742e-06 0)
(-0.00711246 -8.50602e-06 -7.66592e-22)
(-0.00703578 -7.84155e-06 -7.52293e-22)
(-0.00696379 -7.19013e-06 7.3843e-22)
(-0.00689647 -6.559e-06 0)
(-0.00683377 -5.9536e-06 0)
(-0.00677555 -5.37793e-06 6.99112e-22)
(-0.00672166 -4.83474e-06 0)
(-0.00667192 -4.32576e-06 0)
(-0.00662612 -3.85189e-06 0)
(-0.00658403 -3.4133e-06 0)
(-0.00654543 -3.00958e-06 -6.39291e-22)
(-0.00651007 -2.63985e-06 -6.27945e-22)
(-0.00647772 -2.30284e-06 0)
(-0.00644814 -1.997e-06 -6.05702e-22)
(-0.00642111 -1.72052e-06 0)
(-0.00639639 -1.47142e-06 0)
(-0.00637379 -1.24759e-06 -5.73214e-22)
(-0.00635309 -1.04682e-06 0)
(-0.00633413 -8.66854e-07 -5.51984e-22)
(-0.00631673 -7.05355e-07 0)
(-0.00630073 -5.5987e-07 0)
(-0.006286 -4.27667e-07 -5.20577e-22)
(-0.00627244 -3.0527e-07 0)
(-0.00625997 -1.87641e-07 -4.99836e-22)
(-0.00624857 -6.66453e-08 0)
(-0.00623832 7.09671e-08 0)
(-0.00622945 2.45217e-07 0)
(-0.00622241 4.83575e-07 4.58526e-22)
(-0.00621793 8.16941e-07 0)
(-0.00621702 1.26338e-06 -4.37711e-22)
(-0.00622075 1.7805e-06 0)
(-0.00622996 2.25586e-06 0)
(-0.00624414 2.89811e-06 0)
(-0.00626048 3.23274e-06 0)
(-0.00627264 3.10954e-06 0)
(-0.00626902 1.75553e-06 0)
(-0.00622938 -2.16548e-06 0)
(-0.00613326 -9.79649e-06 6.84704e-22)
(-0.00595989 -1.31105e-05 0)
(-0.00529478 -0.000108366 0)
(3.41854e-05 -0.000284864 8.81279e-23)
(0.000255862 -0.000671383 -1.1313e-22)
(0.000580644 -0.000894817 0)
(0.000948677 -0.000979159 7.56324e-23)
(0.00129095 -0.000947345 0)
(0.00155027 -0.000819846 4.11586e-23)
(0.0016781 -0.000614949 -8.29778e-23)
(0.00163156 -0.00034892 -8.68203e-23)
(0.00137273 -3.60496e-05 0)
(0.00086864 0.000311829 -9.63843e-23)
(9.00788e-05 0.000685881 -5.4277e-23)
(-0.000989633 0.00108084 0)
(-0.00239618 0.00149563 0)
(-0.00415651 0.00193345 0)
(-0.00630078 0.00240134 0)
(-0.00886392 0.0029091 -7.65972e-23)
(-0.0118865 0.00346779 0)
(-0.0154144 0.00408806 1.59023e-22)
(-0.0194977 0.00477837 0)
(-0.024188 0.00554359 0)
(-0.029535 0.00638404 -1.95917e-22)
(-0.0355827 0.00729502 0)
(-0.0423652 0.00826664 2.24776e-22)
(-0.0499023 0.00928393 -1.33483e-22)
(-0.0581954 0.010327 1.41593e-22)
(-0.0672239 0.0113712 -1.49502e-22)
(-0.0769418 0.0123874 -1.57003e-22)
(-0.0872755 0.0133425 0)
(-0.0981226 0.0142001 0)
(-0.109352 0.0149219 1.74621e-22)
(-0.120807 0.0154694 -1.60614e-22)
(-0.132306 0.0158057 0)
(-0.14365 0.015898 0)
(-0.154628 0.0157192 1.7594e-22)
(-0.165025 0.0152505 0)
(-0.174628 0.0144822 0)
(-0.183234 0.0134151 -1.4964e-22)
(-0.190657 0.0120602 0)
(-0.196732 0.010439 1.32968e-22)
(-0.201322 0.00858152 -1.84862e-22)
(-0.204319 0.00652502 0)
(-0.205647 0.00431101 0)
(-0.205262 0.00198609 -6.76617e-23)
(-0.203141 -0.000395525 7.76338e-23)
(-0.199325 -0.00277547 2.35113e-22)
(-0.193865 -0.00510449 -1.66284e-22)
(-0.186831 -0.00733586 3.25852e-22)
(-0.178323 -0.00942848 1.17937e-21)
(-0.168452 -0.0113478 -9.47376e-22)
(-0.157348 -0.0130658 -6.0459e-22)
(-0.14515 -0.0145618 0)
(-0.132004 -0.0158217 7.86445e-22)
(-0.11806 -0.0168384 -7.94694e-22)
(-0.103472 -0.0176111 0)
(-0.0883898 -0.0181445 0)
(-0.0729614 -0.0184477 0)
(-0.0573286 -0.0185333 1.14097e-21)
(-0.0416271 -0.0184163 0)
(-0.0259851 -0.0181123 -2.34707e-21)
(-0.0105252 -0.0176365 0)
(0.00463343 -0.0170028 -2.34981e-21)
(0.0193842 -0.016224 0)
(0.0336213 -0.015312 2.09895e-21)
(0.047236 -0.0142788 0)
(0.0601244 -0.0131355 -1.76678e-21)
(0.0721858 -0.0118926 7.62468e-22)
(0.0833207 -0.0105606 0)
(0.0934325 -0.00915179 1.1971e-21)
(0.102428 -0.00768029 5.23384e-22)
(0.11022 -0.00616321 4.22117e-22)
(0.116732 -0.00462074 0)
(0.121899 -0.00307618 1.85867e-22)
(0.125671 -0.00155566 1.28625e-22)
(0.128023 -8.77702e-05 0)
(0.12895 0.00129864 4.82617e-23)
(0.128475 0.0025755 -2.77487e-22)
(0.126655 0.0037172 0)
(0.123574 0.00470303 -2.67358e-22)
(0.119347 0.00551737 0)
(0.11411 0.00615045 1.13605e-21)
(0.108023 0.00659915 0)
(0.101261 0.0068673 -1.37191e-21)
(0.0940056 0.00696528 -4.89516e-22)
(0.086441 0.00690918 5.01131e-22)
(0.0787434 0.00671953 1.03312e-21)
(0.0710757 0.00641981 -1.05427e-21)
(0.0635811 0.00603485 0)
(0.0563796 0.00558941 0)
(0.049565 0.00510695 0)
(0.0432045 0.00460868 3.266e-21)
(0.0373396 0.00411304 1.089e-21)
(0.0319879 0.00363535 -1.07298e-21)
(0.0271464 0.00318778 0)
(0.0227945 0.00277944 -1.00245e-21)
(0.0188983 0.00241649 1.01204e-21)
(0.0154138 0.0021024 9.90429e-22)
(0.0122909 0.00183818 0)
(0.00947704 0.00162264 0)
(0.00691954 0.00145266 0)
(0.00456887 0.00132357 9.14092e-22)
(0.00238048 0.00122945 0)
(0.000316524 0.00116358 -1.75303e-21)
(-0.00165293 0.00111882 -2.59656e-21)
(-0.00354991 0.00108798 1.69828e-21)
(-0.0053876 0.0010647 0)
(-0.00717196 0.00104351 8.19373e-22)
(-0.00890264 0.00101998 0)
(-0.0105744 0.0009909 1.61219e-21)
(-0.0121785 0.00095425 -7.91663e-22)
(-0.0137043 0.000909132 -7.82841e-22)
(-0.0151406 0.000855572 0)
(-0.0164769 0.000794336 -2.3086e-21)
(-0.0177038 0.000726718 1.51636e-21)
(-0.018814 0.000654361 7.50431e-22)
(-0.0198029 0.000579074 0)
(-0.020668 0.000502699 7.2697e-22)
(-0.0214096 0.000426985 2.1402e-21)
(-0.0220302 0.000353506 0)
(-0.0225346 0.000283601 1.37492e-21)
(-0.022929 0.00021834 1.34864e-21)
(-0.0232214 0.000158514 1.32195e-21)
(-0.0234203 0.000104637 0)
(-0.0235352 5.69859e-05 0)
(-0.0235758 1.57227e-05 0)
(-0.0235517 -1.93248e-05 -6.07206e-22)
(-0.0234722 -4.85908e-05 -5.93945e-22)
(-0.0233465 -7.23806e-05 0)
(-0.0231829 -9.11311e-05 -1.13701e-21)
(-0.0229891 -0.000105347 -1.11245e-21)
(-0.0227721 -0.000115553 0)
(-0.0225382 -0.000122273 -1.06479e-21)
(-0.0222929 -0.000126009 -2.08635e-21)
(-0.0220408 -0.000127235 1.02086e-21)
(-0.0217861 -0.000126388 1.0016e-21)
(-0.0215321 -0.000123862 0)
(-0.0212817 -0.000120007 0)
(-0.0210372 -0.000115131 0)
(-0.0208002 -0.000109501 9.24232e-22)
(-0.0205724 -0.000103343 -9.08237e-22)
(-0.0203546 -9.68505e-05 -1.78169e-21)
(-0.0201476 -9.01821e-05 8.74076e-22)
(-0.0199518 -8.34695e-05 -8.59496e-22)
(-0.0197675 -7.68187e-05 -8.43243e-22)
(-0.0195947 -7.03145e-05 0)
(-0.0194334 -6.40231e-05 0)
(-0.0192831 -5.79946e-05 8.00873e-22)
(-0.0191437 -5.22662e-05 0)
(-0.0190147 -4.68634e-05 0)
(-0.0188956 -4.18022e-05 -1.5203e-21)
(-0.0187858 -3.70908e-05 0)
(-0.0186848 -3.27302e-05 -7.34679e-22)
(-0.0185921 -2.87164e-05 7.21699e-22)
(-0.018507 -2.50404e-05 0)
(-0.0184289 -2.16898e-05 -6.97381e-22)
(-0.0183574 -1.86491e-05 0)
(-0.0182918 -1.59007e-05 0)
(-0.0182316 -1.34252e-05 6.6101e-22)
(-0.0181763 -1.1202e-05 -1.29848e-21)
(-0.0181255 -9.2096e-06 6.37368e-22)
(-0.0180786 -7.42552e-06 0)
(-0.0180353 -5.82591e-06 0)
(-0.0179953 -4.38361e-06 -6.0236e-22)
(-0.0179582 -3.06402e-06 0)
(-0.0179239 -1.81724e-06 -5.79083e-22)
(-0.0178922 -5.6528e-07 0)
(-0.0178633 8.14677e-07 0)
(-0.0178376 2.50443e-06 0)
(-0.0178162 4.74231e-06 -5.32556e-22)
(-0.0178006 7.7771e-06 0)
(-0.0177928 1.17425e-05 5.09036e-22)
(-0.0177947 1.64193e-05 0)
(-0.0178071 2.09654e-05 0)
(-0.0178273 2.40658e-05 -9.44384e-22)
(-0.0178466 2.26847e-05 9.18292e-22)
(-0.0178473 1.30659e-05 0)
(-0.0177987 -1.043e-05 0)
(-0.0176524 -5.49899e-05 0)
(-0.0173593 -0.000129761 -2.40583e-21)
(-0.0168448 -0.000261826 0)
(-0.0155638 -0.000565708 1.47006e-21)
(3.01986e-05 -0.000567153 -5.30438e-24)
(0.000209595 -0.00126063 1.42881e-22)
(0.000427771 -0.00158734 0)
(0.000611944 -0.00161199 -1.45875e-22)
(0.000681849 -0.00138203 0)
(0.000567321 -0.000934988 0)
(0.000204942 -0.000303155 5.5304e-24)
(-0.000464839 0.000484539 8.69435e-23)
(-0.00149776 0.00140225 8.45775e-23)
(-0.00294637 0.00242799 9.59419e-23)
(-0.00486036 0.00354513 0)
(-0.00728788 0.00474411 0)
(-0.0102772 0.00602348 -1.02329e-22)
(-0.0138785 0.00739006 -2.15542e-22)
(-0.0181455 0.00885771 2.27532e-22)
(-0.0231366 0.0104447 0)
(-0.0289135 0.01217 2.5569e-22)
(-0.03554 0.0140491 -1.53133e-22)
(-0.0430779 0.0160895 0)
(-0.051582 0.0182877 3.11494e-22)
(-0.0610938 0.0206268 1.8515e-22)
(-0.0716352 0.0230752 -3.59532e-22)
(-0.0832019 0.025587 -2.09471e-22)
(-0.0957573 0.0281025 0)
(-0.109229 0.03055 4.48096e-22)
(-0.123503 0.032848 4.81179e-22)
(-0.138427 0.034908 0)
(-0.153808 0.0366385 5.49544e-22)
(-0.169422 0.0379491 0)
(-0.185013 0.0387563 6.14742e-22)
(-0.200311 0.0389879 3.02083e-22)
(-0.215034 0.0385883 0)
(-0.228906 0.037522 0)
(-0.241663 0.035776 0)
(-0.253062 0.0333605 0)
(-0.262892 0.0303083 0)
(-0.270975 0.0266727 0)
(-0.277172 0.0225245 6.18288e-22)
(-0.281384 0.0179479 -7.89023e-22)
(-0.283548 0.0130367 0)
(-0.283641 0.00788947 0)
(-0.281669 0.00260933 0)
(-0.27767 -0.00269645 -1.23582e-22)
(-0.271738 -0.00792002 -7.1431e-23)
(-0.263951 -0.0129755 -3.13385e-22)
(-0.254415 -0.0177848 6.27242e-22)
(-0.243247 -0.0222812 4.21492e-22)
(-0.230576 -0.0264086 -7.07589e-22)
(-0.216544 -0.0301216 1.10306e-22)
(-0.201298 -0.0333862 -9.50763e-22)
(-0.184989 -0.0361798 0)
(-0.167774 -0.0384905 -1.30114e-21)
(-0.149806 -0.0403172 1.02895e-22)
(-0.13124 -0.041668 0)
(-0.112223 -0.0425591 0)
(-0.0928991 -0.043013 1.89498e-21)
(-0.0734042 -0.0430567 0)
(-0.0538666 -0.0427195 0)
(-0.0344071 -0.0420312 -2.06209e-21)
(-0.0151414 -0.0410203 -4.41029e-21)
(0.00381732 -0.0397128 2.28745e-21)
(0.0223689 -0.0381291 0)
(0.0404131 -0.0362839 -2.03579e-21)
(0.0578384 -0.0341924 0)
(0.0745345 -0.0318682 -1.54217e-21)
(0.0903903 -0.0293236 -1.52141e-21)
(0.105292 -0.0265719 2.52393e-21)
(0.119121 -0.023629 1.00498e-21)
(0.131759 -0.0205152 0)
(0.143088 -0.0172567 -1.39227e-21)
(0.152991 -0.0138867 0)
(0.161362 -0.0104462 -1.04511e-21)
(0.168102 -0.00698356 -3.07367e-22)
(0.173132 -0.00355405 2.50145e-23)
(0.176395 -0.000219209 -3.36921e-22)
(0.177856 0.00295511 8.85157e-22)
(0.177516 0.00590359 0)
(0.175417 0.00856655 0)
(0.17164 0.0108922 -1.30996e-21)
(0.166304 0.0128389 -2.1922e-21)
(0.159569 0.0143781 0)
(0.151626 0.0154961 8.53624e-22)
(0.142695 0.0161956 0)
(0.133013 0.0164955 -2.87414e-21)
(0.122825 0.0164291 1.12091e-23)
(0.112372 0.0160416 -2.37431e-24)
(0.101882 0.0153872 2.04502e-21)
(0.0915575 0.0145245 0)
(0.0815716 0.0135133 -2.05755e-21)
(0.0720601 0.0124111 -2.10274e-23)
(0.063121 0.0112704 0)
(0.0548152 0.010137 0)
(0.0471691 0.00904852 0)
(0.0401793 0.00803439 1.97808e-21)
(0.0338179 0.00711554 0)
(0.0280388 0.00630503 0)
(0.0227836 0.00560866 0)
(0.0179875 0.00502586 0)
(0.013584 0.00455064 0)
(0.0095093 0.00417268 1.76736e-21)
(0.0057056 0.00387841 0)
(0.00212365 0.0036522 1.74385e-21)
(-0.00127533 0.00347744 1.71941e-21)
(-0.00452046 0.00333731 -1.69083e-21)
(-0.0076292 0.00321658 0)
(-0.0106094 0.00310246 -1.64005e-21)
(-0.0134612 0.00298472 0)
(-0.0161784 0.00285606 -1.59703e-21)