/*--------------------------------*- C++ -*----------------------------------*\
  =========                 |
  \\      /  F ield         | OpenFOAM: The Open Source CFD Toolbox
   \\    /   O peration     | Website:  https://openfoam.org
    \\  /    A nd           | Version:  8
     \\/     M anipulation  |
\*---------------------------------------------------------------------------*/
FoamFile
{
    version     2.0;
    format      ascii;
    class       volScalarField;
    location    "0.7";
    object      p;
}
// * * * * * * * * * * * * * * * * * * * * * * * * * * * * * * * * * * * * * //

dimensions      [0 2 -2 0 0 0 0];

internalField   nonuniform List<scalar> 
12225
(
-0.00407534
-0.00404355
-0.00401277
-0.00398959
-0.00397985
-0.00398632
-0.00401157
-0.00405815
-0.00412903
-0.00422802
-0.00436061
-0.00453532
-0.00476643
-0.00507961
-0.00552287
-0.00618827
-0.00733433
-0.0100372
-0.00407513
-0.00404673
-0.0040192
-0.00399899
-0.00399201
-0.00400115
-0.00402904
-0.00407828
-0.00415184
-0.00425356
-0.00438886
-0.00456606
-0.00479868
-0.00510999
-0.00554025
-0.00616033
-0.00710857
-0.00893439
-0.00407616
-0.00405086
-0.0040269
-0.00401009
-0.00400631
-0.00401851
-0.0040494
-0.00410157
-0.00417798
-0.00428239
-0.00442
-0.00459853
-0.00483001
-0.00513368
-0.00553911
-0.00608897
-0.00680831
-0.00795821
-0.0040787
-0.00405544
-0.0040345
-0.00402078
-0.00401995
-0.00403495
-0.00406848
-0.00412312
-0.00420172
-0.00430781
-0.00444611
-0.00462333
-0.00484919
-0.00513776
-0.00550702
-0.00597487
-0.00651199
-0.00723658
-0.00408259
-0.00406047
-0.00404196
-0.004031
-0.00403282
-0.0040503
-0.0040861
-0.00414269
-0.00422273
-0.00432939
-0.00446667
-0.00463989
-0.00485598
-0.00512344
-0.00544977
-0.00583508
-0.00623271
-0.00668638
-0.00408759
-0.00406592
-0.00404933
-0.00404082
-0.00404502
-0.0040647
-0.00410238
-0.00416039
-0.00424113
-0.00434726
-0.00448189
-0.00464868
-0.00485161
-0.00509399
-0.00537501
-0.00568353
-0.00597205
-0.00624769
-0.0040934
-0.00407166
-0.0040565
-0.00405012
-0.0040564
-0.00407794
-0.0041171
-0.00417597
-0.00425661
-0.0043611
-0.00449152
-0.0046498
-0.00483708
-0.0050523
-0.00528885
-0.00552981
-0.00573392
-0.00589473
-0.00409969
-0.00407747
-0.00406328
-0.00405869
-0.00406672
-0.00408976
-0.00412991
-0.00418904
-0.00426878
-0.00437056
-0.00449538
-0.0046435
-0.00481357
-0.00500124
-0.00519646
-0.00538065
-0.00552145
-0.00561081
-0.00410598
-0.00408305
-0.00406945
-0.00406629
-0.00407572
-0.00409984
-0.00414051
-0.00419927
-0.00427733
-0.00437541
-0.0044935
-0.00463033
-0.00478261
-0.00494377
-0.0051023
-0.00524066
-0.00533541
-0.00538161
-0.00411173
-0.00408803
-0.00407471
-0.00407267
-0.00408314
-0.00410793
-0.00414861
-0.00420639
-0.00428203
-0.0043756
-0.00448612
-0.00461112
-0.00474588
-0.00488266
-0.0050099
-0.00511253
-0.00517473
-0.00519546
-0.00411634
-0.00409192
-0.00407873
-0.00407751
-0.00408867
-0.00411371
-0.0041539
-0.00421014
-0.00428273
-0.00437115
-0.00447365
-0.00458681
-0.00470505
-0.00482024
-0.00492165
-0.00499719
-0.00503684
-0.0050429
-0.00411892
-0.00409401
-0.0040809
-0.00408022
-0.00409171
-0.0041166
-0.00415591
-0.00421025
-0.00427959
-0.00436292
-0.00445796
-0.0045607
-0.0046652
-0.00476342
-0.00484575
-0.00490258
-0.00492768
-0.00492561
-0.00411928
-0.00409473
-0.00408168
-0.00408142
-0.00409306
-0.00411753
-0.00415564
-0.00420773
-0.00427346
-0.00435147
-0.00443905
-0.0045319
-0.004624
-0.0047078
-0.004775
-0.00481817
-0.00483373
-0.00482626
-0.00411629
-0.00409303
-0.00408029
-0.0040804
-0.004092
-0.00411565
-0.00415196
-0.00420104
-0.00426229
-0.00433405
-0.00441335
-0.00449578
-0.00457553
-0.00464582
-0.00469972
-0.00473179
-0.0047402
-0.00472885
-0.00410771
-0.00408689
-0.00407517
-0.00407569
-0.00408697
-0.00410928
-0.00414304
-0.00418821
-0.004244
-0.0043086
-0.00437898
-0.00445084
-0.00451882
-0.00457701
-0.00461977
-0.0046431
-0.00464596
-0.00463126
-0.00409032
-0.00407358
-0.00406409
-0.00406526
-0.00407593
-0.00409623
-0.0041265
-0.00416665
-0.00421586
-0.00427233
-0.00433318
-0.00439445
-0.00445135
-0.0044988
-0.00453217
-0.00454829
-0.00454609
-0.00452727
-0.00406029
-0.0040498
-0.00404429
-0.0040466
-0.00405635
-0.00407381
-0.00409938
-0.00413306
-0.00417417
-0.00422113
-0.00427138
-0.00432145
-0.00436717
-0.00440415
-0.00442841
-0.00443704
-0.0044285
-0.00440313
-0.00401448
-0.0040126
-0.004013
-0.00401699
-0.00402531
-0.00403875
-0.00405792
-0.00408304
-0.0041137
-0.00414869
-0.00418592
-0.00422244
-0.00425471
-0.00427888
-0.00429135
-0.00428915
-0.0042701
-0.00423346
-0.00395429
-0.00396256
-0.00396969
-0.00397498
-0.00398043
-0.00398755
-0.00399728
-0.00401014
-0.00402609
-0.00404442
-0.00406363
-0.00408143
-0.00409491
-0.00410078
-0.00409571
-0.00407662
-0.00404056
-0.00398537
-0.00390889
-0.00392516
-0.00393716
-0.00394257
-0.00394428
-0.00394404
-0.0039428
-0.00394113
-0.00393919
-0.00393662
-0.00393245
-0.00392512
-0.00391253
-0.00389222
-0.00386169
-0.00381847
-0.00375981
-0.00368351
-0.00388642
-0.00390667
-0.00392086
-0.00392598
-0.00392517
-0.00392
-0.00391118
-0.00389914
-0.00388397
-0.00386541
-0.00384277
-0.00381491
-0.00378028
-0.00373709
-0.00368349
-0.00361763
-0.00353735
-0.00344084
-0.00387951
-0.00390114
-0.00391605
-0.00392107
-0.00391899
-0.00391086
-0.00389703
-0.00387761
-0.00385253
-0.00382144
-0.00378374
-0.00373855
-0.00368475
-0.00362106
-0.00354621
-0.00345903
-0.00335804
-0.00324187
-0.0038829
-0.00390422
-0.00391914
-0.0039246
-0.00392257
-0.00391343
-0.00389708
-0.00387333
-0.00384183
-0.00380209
-0.00375348
-0.00369522
-0.00362644
-0.00354624
-0.00345382
-0.00334852
-0.00322961
-0.00309632
-0.00389172
-0.0039119
-0.0039268
-0.00393345
-0.00393266
-0.00392413
-0.00390736
-0.00388185
-0.003847
-0.00380212
-0.00374647
-0.00367928
-0.00359978
-0.00350731
-0.00340135
-0.00328165
-0.00314807
-0.00300051
-0.00390229
-0.00392124
-0.00393659
-0.00394517
-0.00394655
-0.00393983
-0.0039242
-0.00389887
-0.00386303
-0.00381579
-0.00375628
-0.00368362
-0.00359709
-0.00349611
-0.00338033
-0.00324974
-0.00310464
-0.00294552
-0.00391218
-0.00393037
-0.0039469
-0.00395807
-0.00396228
-0.00395816
-0.00394468
-0.00392086
-0.00388569
-0.00383812
-0.0037771
-0.00370165
-0.00361098
-0.0035045
-0.00338195
-0.00324345
-0.00308951
-0.00292115
-0.00392002
-0.00393831
-0.00395689
-0.00397116
-0.00397858
-0.00397751
-0.0039668
-0.00394532
-0.00391193
-0.00386541
-0.00380455
-0.00372824
-0.00363555
-0.00352586
-0.00339889
-0.00325478
-0.00309416
-0.00291838
-0.00392515
-0.00394475
-0.00396627
-0.00398406
-0.00399494
-0.00399719
-0.00398961
-0.00397101
-0.00394014
-0.00389563
-0.00383612
-0.00376033
-0.00366719
-0.00355597
-0.00342631
-0.00327833
-0.00311265
-0.00293076
-0.00392741
-0.0039497
-0.00397496
-0.00399653
-0.00401098
-0.00401666
-0.00401239
-0.00399699
-0.00396911
-0.00392727
-0.00386993
-0.00379566
-0.00370322
-0.00359171
-0.00346067
-0.00331012
-0.00314063
-0.0029537
-0.00392751
-0.00395299
-0.00398166
-0.00400639
-0.00402376
-0.00403224
-0.00403072
-0.00401803
-0.00399277
-0.00395335
-0.00389813
-0.00382551
-0.00373413
-0.00362293
-0.00349135
-0.00333931
-0.00316731
-0.0029768
0.000382023
0.000399246
0.000404343
0.00038623
0.000343806
0.000277935
0.000189791
8.08598e-05
-4.71519e-05
-0.000192538
-0.000353708
-0.00052933
-0.000718312
-0.000919813
-0.00113321
-0.00135803
-0.00159385
-0.00184026
-0.00209666
-0.00236226
-0.00263592
-0.00291607
-0.00320067
-0.00348708
-0.00377205
-0.00405169
-0.00432141
-0.00457599
-0.00480952
-0.00501554
-0.00518705
-0.00531667
-0.00539675
-0.0054196
-0.00537762
-0.00526363
-0.00507104
-0.00479418
-0.00442849
-0.00397088
-0.00341986
-0.00277579
-0.002041
-0.00121992
-0.000319014
0.000653425
0.00168666
0.00276839
0.00388479
0.00502069
0.00616002
0.00728612
0.00838219
0.00943155
0.0104181
0.0113265
0.0121424
0.0128531
0.0134469
0.0139139
0.0142457
0.0144358
0.0144791
0.0143727
0.0141151
0.0137071
0.0131513
0.0124529
0.0116191
0.0106598
0.00958741
0.00841713
0.00716681
0.00585685
0.00450991
0.00315047
0.0018041
0.000496511
-0.000746652
-0.00190203
-0.00294888
-0.00386989
-0.00465234
-0.00528869
-0.00577692
-0.0061205
-0.00632797
-0.00641222
-0.00638947
-0.00627802
-0.00609704
-0.00586534
-0.00560047
-0.0053179
-0.0050307
-0.00474935
-0.00448191
-0.00423431
-0.00401066
-0.00381361
-0.0036445
-0.0035035
-0.00338968
-0.00330103
-0.00323468
-0.00318704
-0.00315418
-0.00313209
-0.00311698
-0.00310548
-0.00309477
-0.00308259
-0.00306725
-0.00304756
-0.00302282
-0.0029927
-0.00295723
-0.00291672
-0.00287169
-0.00282283
-0.00277096
-0.00271693
-0.00266166
-0.002606
-0.00255075
-0.00249662
-0.00244423
-0.00239405
-0.00234646
-0.00230169
-0.00225989
-0.00222109
-0.00218525
-0.00215225
-0.00212191
-0.00209403
-0.00206836
-0.00204465
-0.00202265
-0.00200209
-0.00198273
-0.00196433
-0.00194667
-0.00192955
-0.00191278
-0.00189621
-0.00187968
-0.00186308
-0.0018463
-0.00182923
-0.00181181
-0.00179397
-0.00177566
-0.00175683
-0.00173746
-0.00171753
-0.00169702
-0.00167592
-0.00165422
-0.00163193
-0.00160905
-0.00158558
-0.00156151
-0.00153683
-0.00151153
-0.00148556
-0.00145885
-0.00143133
-0.00140288
-0.00137335
-0.00134258
-0.00131037
-0.00127651
-0.00124089
-0.00120339
-0.001164
-0.00112286
-0.00108083
-0.0010409
-0.000986882
0.00038985
0.000407662
0.000412738
0.000395237
0.000355841
0.000296202
0.000217549
0.000121098
8.14249e-06
-0.000120045
-0.000262337
-0.000417761
-0.000585562
-0.00076519
-0.000956263
-0.00115851
-0.0013717
-0.00159557
-0.00182976
-0.00207366
-0.0023264
-0.00258671
-0.00285286
-0.00312262
-0.00339317
-0.00366104
-0.00392214
-0.00417168
-0.00440421
-0.00461365
-0.0047933
-0.00493603
-0.00503431
-0.00508041
-0.00506663
-0.00498549
-0.00483002
-0.00459399
-0.00427225
-0.00386098
-0.00335795
-0.00276274
-0.00207697
-0.0013043
-0.000450405
0.000476791
0.0014674
0.00250943
0.00358917
0.00469162
0.00580078
0.00690002
0.00797244
0.00900129
0.00997028
0.0108639
0.0116679
0.012369
0.0129557
0.0134178
0.013747
0.0139366
0.0139813
0.0138779
0.0136253
0.0132243
0.0126781
0.0119918
0.0111729
0.0102314
0.00918017
0.00803447
0.00681248
0.00553481
0.0042243
0.00290547
0.00160388
0.000345232
-0.000845964
-0.00194631
-0.00293674
-0.0038014
-0.00452909
-0.00511405
-0.00555606
-0.00586031
-0.00603679
-0.00609941
-0.00606485
-0.00595131
-0.00577725
-0.00556031
-0.00531645
-0.00505942
-0.00480047
-0.00454842
-0.00430988
-0.00408957
-0.00389073
-0.00371539
-0.0035646
-0.00343844
-0.00333613
-0.00325601
-0.00319565
-0.00315201
-0.00312171
-0.00310129
-0.0030874
-0.00307705
-0.00306764
-0.00305707
-0.00304371
-0.00302638
-0.0030043
-0.00297708
-0.00294466
-0.00290722
-0.00286522
-0.00281925
-0.00277007
-0.00271849
-0.00266535
-0.00261151
-0.00255775
-0.00250479
-0.00245325
-0.00240365
-0.00235637
-0.00231169
-0.00226978
-0.00223071
-0.00219447
-0.00216097
-0.00213007
-0.00210157
-0.00207527
-0.00205092
-0.00202829
-0.00200711
-0.00198716
-0.0019682
-0.00195002
-0.00193242
-0.00191522
-0.00189825
-0.00188137
-0.00186445
-0.00184738
-0.00183007
-0.00181243
-0.00179441
-0.00177593
-0.00175698
-0.0017375
-0.00171747
-0.00169688
-0.00167571
-0.00165396
-0.00163163
-0.00160871
-0.0015852
-0.0015611
-0.00153639
-0.00151104
-0.00148504
-0.00145831
-0.00143077
-0.00140232
-0.00137282
-0.00134212
-0.00131004
-0.00127646
-0.00124121
-0.00120424
-0.0011656
-0.0011255
-0.00108489
-0.00104665
-0.000995009
0.000502372
0.000512366
0.000509382
0.000485865
0.000443378
0.000383906
0.000308733
0.000218929
0.000115503
-6.07846e-07
-0.000128646
-0.000268062
-0.000418523
-0.0005799
-0.000752229
-0.000935658
-0.00113038
-0.00133658
-0.00155429
-0.00178338
-0.00202343
-0.00227365
-0.00253279
-0.00279909
-0.00307018
-0.00334304
-0.00361389
-0.00387822
-0.00413073
-0.00436533
-0.00457521
-0.00475292
-0.00489047
-0.00497953
-0.00501166
-0.00497854
-0.00487227
-0.00468571
-0.00441279
-0.00404881
-0.00359078
-0.00303768
-0.00239062
-0.00165273
-0.000829306
7.15875e-05
0.00103966
0.00206267
0.00312664
0.00421616
0.00531481
0.00640552
0.00747098
0.00849407
0.00945822
0.0103477
0.0111481
0.0118461
0.0124302
0.0128904
0.0132184
0.0134076
0.0134531
0.0133516
0.0131019
0.012705
0.0121641
0.0114844
0.0106733
0.00974106
0.0087004
0.007567
0.00635932
0.00509844
0.00380771
0.00251227
0.0012383
1.20924e-05
-0.00114088
-0.00219777
-0.00313871
-0.00394881
-0.00461803
-0.0051421
-0.00552285
-0.00576787
-0.00588971
-0.00590473
-0.00583169
-0.00569025
-0.00549951
-0.00527692
-0.00503744
-0.0047932
-0.00455345
-0.00432487
-0.00411197
-0.00391769
-0.0037438
-0.0035913
-0.00346056
-0.00335139
-0.00326299
-0.00319391
-0.0031421
-0.00310495
-0.00307957
-0.00306295
-0.00305217
-0.00304456
-0.00303781
-0.00302995
-0.00301946
-0.00300516
-0.00298626
-0.00296231
-0.00293317
-0.00289896
-0.00286004
-0.00281695
-0.00277039
-0.00272114
-0.00267002
-0.00261788
-0.00256549
-0.00251359
-0.00246281
-0.0024137
-0.00236666
-0.00232202
-0.00227997
-0.00224061
-0.00220396
-0.00216996
-0.00213849
-0.00210939
-0.00208245
-0.00205747
-0.0020342
-0.00201241
-0.00199186
-0.00197234
-0.00195364
-0.00193555
-0.00191789
-0.00190052
-0.00188326
-0.00186601
-0.00184865
-0.00183107
-0.00181321
-0.00179498
-0.00177633
-0.00175723
-0.00173762
-0.00171748
-0.0016968
-0.00167556
-0.00165376
-0.00163137
-0.00160841
-0.00158487
-0.00156073
-0.00153599
-0.00151062
-0.00148459
-0.00145784
-0.00143029
-0.00140186
-0.00137241
-0.00134181
-0.00130992
-0.00127663
-0.00124181
-0.00120545
-0.00116765
-0.00112863
-0.00108942
-0.00105312
-0.0010029
0.000726033
0.000717943
0.000696891
0.000659879
0.000608156
0.00054303
0.000465508
0.000376411
0.000276464
0.000166193
4.58976e-05
-8.43718e-05
-0.000224815
-0.000375866
-0.000538158
-0.000712468
-0.000899641
-0.00110051
-0.00131581
-0.00154607
-0.00179151
-0.00205194
-0.00232667
-0.00261436
-0.00291297
-0.00321961
-0.00353051
-0.00384089
-0.00414499
-0.00443604
-0.00470631
-0.00494725
-0.00514964
-0.00530381
-0.00539992
-0.0054283
-0.00537978
-0.0052461
-0.00502023
-0.00469677
-0.00427229
-0.0037456
-0.00311769
-0.00239162
-0.00157352
-0.000672461
0.000300498
0.00133225
0.00240788
0.00351105
0.00462441
0.00573005
0.00680995
0.0078464
0.0088224
0.00972202
0.0105306
0.0112352
0.0118242
0.012288
0.0126188
0.0128101
0.0128574
0.0127578
0.0125103
0.0121155
0.0115764
0.010898
0.0100877
0.0091552
0.0081134
0.00697792
0.00576745
0.00450352
0.00321022
0.00191369
0.000641317
-0.000579184
-0.00172091
-0.0027588
-0.00367162
-0.00444352
-0.00506417
-0.00552958
-0.00584278
-0.00601351
-0.0060574
-0.00599454
-0.00584763
-0.00564005
-0.00539396
-0.00512877
-0.00486017
-0.00459977
-0.00435531
-0.00413124
-0.00392958
-0.00375081
-0.00359454
-0.00346008
-0.00334662
-0.00325325
-0.0031788
-0.00312174
-0.0030801
-0.00305149
-0.00303325
-0.00302265
-0.00301702
-0.00301394
-0.00301126
-0.0030072
-0.00300028
-0.0029894
-0.00297376
-0.00295291
-0.00292666
-0.00289512
-0.00285862
-0.00281768
-0.00277299
-0.00272533
-0.00267553
-0.00262442
-0.00257284
-0.00252151
-0.00247111
-0.00242219
-0.0023752
-0.00233047
-0.00228822
-0.00224858
-0.00221157
-0.00217716
-0.00214525
-0.00211568
-0.00208826
-0.00206279
-0.00203904
-0.00201678
-0.00199578
-0.00197583
-0.00195672
-0.00193825
-0.00192024
-0.00190254
-0.00188499
-0.00186747
-0.00184986
-0.00183207
-0.00181401
-0.00179561
-0.00177681
-0.00175757
-0.00173785
-0.00171762
-0.00169686
-0.00167555
-0.00165368
-0.00163124
-0.00160824
-0.00158466
-0.00156049
-0.00153573
-0.00151034
-0.00148429
-0.00145754
-0.00143001
-0.00140161
-0.00137224
-0.00134178
-0.00131011
-0.00127712
-0.00124273
-0.00120694
-0.00116987
-0.00113177
-0.00109359
-0.0010583
-0.00100991
0.0010351
0.00100095
0.000953748
0.00089727
0.000831575
0.000756649
0.000672794
0.00058029
0.000479241
0.00036954
0.000250838
0.000122518
-1.63192e-05
-0.000166841
-0.000330449
-0.000508718
-0.000703319
-0.000915915
-0.00114805
-0.00140102
-0.00167573
-0.00197256
-0.00229121
-0.00263054
-0.00298845
-0.00336172
-0.00374594
-0.00413541
-0.00452316
-0.00490097
-0.00525947
-0.00558835
-0.00587657
-0.00611269
-0.00628523
-0.00638304
-0.00639572
-0.00631405
-0.00613037
-0.00583899
-0.00543649
-0.00492178
-0.00429606
-0.00356377
-0.0027325
-0.00181207
-0.000814715
0.000245193
0.00135145
0.00248646
0.00363172
0.00476827
0.00587721
0.00694015
0.00793963
0.00885948
0.00968505
0.0104035
0.0110036
0.0114762
0.0118139
0.0120109
0.012063
0.0119675
0.0117235
0.0113315
0.0107944
0.0101168
0.00930565
0.00837036
0.00732331
0.00617998
0.00495906
0.00368239
0.00237473
0.00106322
-0.000223321
-0.00145541
-0.00260409
-0.00364222
-0.00454565
-0.00529564
-0.00588012
-0.00629399
-0.00653995
-0.00662876
-0.00657853
-0.00641322
-0.00616057
-0.00584952
-0.00550767
-0.00515905
-0.00482247
-0.00451097
-0.00423195
-0.00398813
-0.00377889
-0.00360166
-0.00345313
-0.00333009
-0.0032298
-0.00315
-0.00308868
-0.00304382
-0.00301322
-0.00299448
-0.00298495
-0.00298201
-0.00298312
-0.00298597
-0.00298857
-0.0029892
-0.00298649
-0.00297937
-0.00296708
-0.00294918
-0.00292549
-0.00289612
-0.00286143
-0.00282197
-0.00277843
-0.00273164
-0.00268246
-0.00263177
-0.00258042
-0.00252918
-0.00247875
-0.0024297
-0.00238251
-0.00233753
-0.00229498
-0.00225501
-0.00221766
-0.00218289
-0.00215061
-0.00212066
-0.00209288
-0.00206704
-0.00204293
-0.00202033
-0.001999
-0.00197873
-0.00195932
-0.00194056
-0.00192229
-0.00190433
-0.00188655
-0.00186882
-0.00185102
-0.00183305
-0.00181482
-0.00179628
-0.00177736
-0.001758
-0.00173818
-0.00171786
-0.00169702
-0.00167564
-0.00165371
-0.00163123
-0.00160818
-0.00158457
-0.00156037
-0.00153558
-0.00151018
-0.00148413
-0.00145739
-0.00142989
-0.00140156
-0.0013723
-0.00134201
-0.00131058
-0.00127791
-0.00124395
-0.00120871
-0.00117231
-0.00113498
-0.00109758
-0.00106262
-0.00101675
0.00139792
0.00133295
0.00125497
0.00117558
0.00109325
0.00100599
0.000912932
0.000813412
0.000706612
0.00059152
0.0004669
0.000331264
0.000182838
1.95623e-05
-0.00016087
-0.000360952
-0.000583263
-0.000830341
-0.00110453
-0.00140779
-0.00174155
-0.00210644
-0.00250217
-0.00292726
-0.00337894
-0.00385295
-0.0043435
-0.00484323
-0.00534324
-0.00583324
-0.00630172
-0.00673625
-0.0071238
-0.00745112
-0.00770519
-0.00787362
-0.00794512
-0.00790992
-0.00776016
-0.00749024
-0.00709705
-0.00658004
-0.00594172
-0.00518792
-0.00432727
-0.00337091
-0.00233249
-0.0012279
-7.48351e-05
0.00110766
0.00229972
0.00348118
0.00463212
0.00573336
0.00676692
0.00771635
0.00856706
0.00930638
0.00992369
0.0104103
0.0107595
0.0109662
0.0110266
0.0109384
0.0107008
0.0103144
0.00978173
0.00910694
0.00829639
0.0073589
0.00630629
0.00515362
0.0039194
0.00262562
0.0012975
-3.69007e-05
-0.00134742
-0.00260278
-0.00377179
-0.00482477
-0.00573469
-0.00647933
-0.00704301
-0.00741803
-0.00760524
-0.00761469
-0.00746541
-0.00718422
-0.00680364
-0.00635899
-0.00588507
-0.005413
-0.00496759
-0.00456595
-0.00421728
-0.0039239
-0.00368304
-0.00348891
-0.00333464
-0.00321361
-0.00312026
-0.00305017
-0.00299986
-0.00296629
-0.00294667
-0.00293825
-0.00293825
-0.00294394
-0.00295279
-0.00296252
-0.00297119
-0.00297714
-0.00297903
-0.00297585
-0.00296686
-0.00295166
-0.00293013
-0.0029024
-0.00286889
-0.0028302
-0.00278711
-0.00274047
-0.00269123
-0.00264032
-0.00258864
-0.00253699
-0.00248611
-0.00243661
-0.00238897
-0.00234354
-0.00230058
-0.00226022
-0.0022225
-0.00218739
-0.00215479
-0.00212455
-0.00209648
-0.00207038
-0.00204602
-0.00202317
-0.00200161
-0.00198112
-0.00196149
-0.00194253
-0.00192406
-0.00190593
-0.00188797
-0.00187008
-0.00185212
-0.00183401
-0.00181566
-0.00179699
-0.00177796
-0.0017585
-0.00173859
-0.00171819
-0.00169728
-0.00167584
-0.00165385
-0.00163132
-0.00160823
-0.00158458
-0.00156036
-0.00153555
-0.00151013
-0.00148409
-0.00145737
-0.00142993
-0.00140168
-0.00137256
-0.00134247
-0.0013113
-0.00127899
-0.00124547
-0.00121076
-0.00117499
-0.00113835
-0.00110158
-0.00106657
-0.00102368
0.00177579
0.00167812
0.00156766
0.00146433
0.00136448
0.00126358
0.00115913
0.00104916
0.000931596
0.000804248
0.000664763
0.000510589
0.000338925
0.000146708
-6.93499e-05
-0.00031268
-0.000586729
-0.00089479
-0.00123979
-0.00162407
-0.00204911
-0.00251531
-0.00302173
-0.00356588
-0.00414358
-0.00474882
-0.00537377
-0.00600883
-0.00664275
-0.00726287
-0.00785544
-0.00840593
-0.00889949
-0.00932136
-0.00965732
-0.00989413
-0.01002
-0.0100249
-0.00990119
-0.00964345
-0.00924916
-0.00871877
-0.00805613
-0.0072682
-0.00636474
-0.00535836
-0.00426431
-0.00310015
-0.00188523
-0.00064026
0.000613331
0.00185396
0.00306049
0.0042128
0.00529221
0.00628197
0.00716744
0.00793622
0.00857823
0.00908549
0.00945199
0.00967342
0.00974683
0.0096703
0.00944326
0.00906633
0.0085415
0.00787264
0.00706539
0.00612788
0.00507122
0.00390992
0.00266219
0.00134997
-1.12599e-06
-0.0013623
-0.00270217
-0.00398779
-0.00518581
-0.00626393
-0.00719236
-0.00794542
-0.00850338
-0.00885457
-0.00899671
-0.00893748
-0.00869494
-0.00829688
-0.0077792
-0.00718294
-0.0065506
-0.00592197
-0.00533039
-0.00479998
-0.00434457
-0.00396831
-0.00366763
-0.00343402
-0.00325678
-0.00312525
-0.00303011
-0.00296392
-0.0029209
-0.00289644
-0.00288665
-0.00288809
-0.0028976
-0.00291218
-0.00292914
-0.00294616
-0.00296124
-0.00297272
-0.00297928
-0.00297993
-0.00297398
-0.00296106
-0.00294111
-0.00291437
-0.0028813
-0.00284262
-0.00279919
-0.00275196
-0.00270196
-0.00265018
-0.00259759
-0.00254504
-0.00249331
-0.00244302
-0.00239466
-0.00234861
-0.00230512
-0.0022643
-0.00222619
-0.00219076
-0.00215789
-0.00212741
-0.00209914
-0.00207286
-0.00204834
-0.00202534
-0.00200364
-0.00198302
-0.00196326
-0.00194418
-0.00192559
-0.00190733
-0.00188926
-0.00187124
-0.00185318
-0.00183496
-0.0018165
-0.00179774
-0.00177862
-0.00175908
-0.00173909
-0.00171861
-0.00169763
-0.00167613
-0.00165409
-0.00163151
-0.00160838
-0.00158469
-0.00156044
-0.00153561
-0.0015102
-0.00148416
-0.00145748
-0.00143011
-0.00140197
-0.00137301
-0.00134313
-0.00131226
-0.00128032
-0.00124726
-0.00121308
-0.0011779
-0.00114189
-0.00110562
-0.00107038
-0.00103066
0.0021243
0.00199469
0.00185277
0.00172639
0.00160936
0.00149418
0.00137636
0.00125228
0.00111834
0.000970939
0.000806419
0.000621034
0.000410864
0.000171804
-0.000100385
-0.000409973
-0.000761083
-0.00115747
-0.00160226
-0.00209766
-0.00264464
-0.0032427
-0.00388957
-0.00458109
-0.00531105
-0.00607117
-0.0068512
-0.00763906
-0.00842109
-0.00918237
-0.00990707
-0.0105789
-0.0111816
-0.0116991
-0.0121165
-0.0124199
-0.0125971
-0.0126382
-0.0125356
-0.0122841
-0.0118819
-0.0113306
-0.0106349
-0.00980272
-0.00884514
-0.00777632
-0.00661321
-0.00537517
-0.00408344
-0.00276059
-0.00142988
-0.000114582
0.00116268
0.00238057
0.00351956
0.00456235
0.00549419
0.00630292
0.00697896
0.00751513
0.00790629
0.00814905
0.00824128
0.00818179
0.00797021
0.00760718
0.00709445
0.00643534
0.00563486
0.00470034
0.00364216
0.00247421
0.0012143
-0.00011568
-0.00148988
-0.00287881
-0.00425002
-0.00556902
-0.00680048
-0.00790966
-0.00886397
-0.00963449
-0.0101983
-0.0105388
-0.01065
-0.0105361
-0.0102124
-0.00970601
-0.00905392
-0.00830124
-0.0074972
-0.00669052
-0.00592445
-0.00523257
-0.00463623
-0.00414415
-0.00375413
-0.0034562
-0.00323623
-0.0030792
-0.00297139
-0.00290144
-0.0028605
-0.00284169
-0.00283948
-0.00284937
-0.00286752
-0.00289048
-0.00291527
-0.00293937
-0.00296068
-0.00297746
-0.00298838
-0.00299244
-0.00298898
-0.0029777
-0.00295861
-0.00293205
-0.00289861
-0.0028591
-0.00281454
-0.00276596
-0.00271449
-0.00266122
-0.00260717
-0.00255326
-0.00250029
-0.00244891
-0.00239962
-0.00235279
-0.00230865
-0.00226732
-0.00222882
-0.00219308
-0.00215998
-0.00212934
-0.00210095
-0.00207457
-0.00204998
-0.00202693
-0.00200518
-0.0019845
-0.00196469
-0.00194555
-0.0019269
-0.00190858
-0.00189044
-0.00187235
-0.00185421
-0.00183591
-0.00181738
-0.00179854
-0.00177934
-0.00175973
-0.00173967
-0.00171913
-0.00169809
-0.00167653
-0.00165444
-0.00163181
-0.00160863
-0.00158491
-0.00156063
-0.00153578
-0.00151036
-0.00148435
-0.00145772
-0.00143042
-0.00140241
-0.00137362
-0.00134399
-0.00131343
-0.00128188
-0.00124927
-0.00121562
-0.00118099
-0.00114555
-0.00110969
-0.00107409
-0.00103751
0.00239626
0.00223791
0.00206777
0.00192063
0.00178748
0.00165764
0.00152435
0.00138213
0.00122567
0.00104979
0.000849449
0.000619646
0.000355338
5.14406e-05
-0.000297105
-0.00069518
-0.00114727
-0.00165717
-0.00222771
-0.00286038
-0.00355505
-0.0043097
-0.0051202
-0.00598021
-0.00688116
-0.0078123
-0.00876092
-0.00971256
-0.0106514
-0.0115605
-0.0124223
-0.0132192
-0.0139337
-0.0145488
-0.0150489
-0.0154196
-0.0156484
-0.0157251
-0.015642
-0.0153944
-0.0149808
-0.0144037
-0.0136682
-0.0127834
-0.0117618
-0.010619
-0.00937378
-0.0080475
-0.00666348
-0.00524644
-0.00382176
-0.00241474
-0.0010498
0.00025018
0.00146451
0.00257516
0.00356704
0.00442814
0.00514939
0.00572439
0.00614901
0.00642087
0.00653883
0.00650252
0.006312
0.00596802
0.00547212
0.00482708
0.00403727
0.00310928
0.00205269
0.000880803
-0.00038898
-0.00173487
-0.00313077
-0.00454656
-0.00594877
-0.00730151
-0.00856761
-0.00971011
-0.0106938
-0.0114868
-0.0120631
-0.0124024
-0.0124941
-0.0123385
-0.0119477
-0.0113461
-0.0105702
-0.00966697
-0.0086904
-0.00769705
-0.00674012
-0.00586393
-0.0050996
-0.00446315
-0.0039563
-0.00356949
-0.00328625
-0.00308746
-0.00295463
-0.00287188
-0.00282653
-0.00280876
-0.00281088
-0.00282691
-0.00285201
-0.00288209
-0.00291374
-0.00294413
-0.00297095
-0.00299235
-0.00300692
-0.00301364
-0.00301187
-0.00300139
-0.00298229
-0.00295504
-0.00292035
-0.00287921
-0.0028327
-0.00278204
-0.00272845
-0.00267312
-0.00261714
-0.00256147
-0.00250695
-0.00245423
-0.00240383
-0.0023561
-0.00231126
-0.00226939
-0.00223051
-0.0021945
-0.00216123
-0.00213048
-0.00210205
-0.00207566
-0.00205108
-0.00202805
-0.00200633
-0.00198567
-0.00196588
-0.00194674
-0.00192808
-0.00190974
-0.00189157
-0.00187345
-0.00185526
-0.00183691
-0.00181832
-0.00179942
-0.00178016
-0.00176048
-0.00174036
-0.00171976
-0.00169865
-0.00167703
-0.00165489
-0.00163221
-0.00160898
-0.00158522
-0.00156091
-0.00153605
-0.00151064
-0.00148464
-0.00145806
-0.00143085
-0.00140298
-0.00137438
-0.001345
-0.00131477
-0.0012836
-0.00125146
-0.00121831
-0.00118419
-0.00114925
-0.00111373
-0.00107771
-0.00104406
0.00254574
0.00236397
0.00217071
0.00200611
0.00185829
0.00171342
0.00156241
0.0013978
0.0012125
0.000999748
0.000753105
0.000466345
0.000133393
-0.000251666
-0.00069448
-0.00120024
-0.00177339
-0.00241734
-0.0031341
-0.00392396
-0.00478518
-0.00571382
-0.00670356
-0.00774571
-0.00882928
-0.00994116
-0.0110664
-0.0121884
-0.0132895
-0.0143513
-0.0153547
-0.0162808
-0.0171112
-0.017828
-0.0184146
-0.0188561
-0.0191395
-0.0192542
-0.019192
-0.0189482
-0.018522
-0.0179157
-0.0171353
-0.0161909
-0.0150961
-0.0138684
-0.0125284
-0.0110995
-0.00960738
-0.00807918
-0.00654275
-0.00502573
-0.00355475
-0.00215457
-0.000847398
0.000347685
0.00141506
0.00234265
0.00312184
0.00374703
0.00421514
0.00452494
0.00467642
0.00467015
0.00450684
0.00418749
0.00371353
0.00308718
0.00231226
0.00139462
0.00034314
-0.000829503
-0.00210626
-0.00346542
-0.00488063
-0.00632114
-0.00775253
-0.00913753
-0.0104373
-0.0116128
-0.0126265
-0.0134438
-0.0140356
-0.0143791
-0.014459
-0.0142721
-0.0138268
-0.0131442
-0.0122587
-0.0112174
-0.0100768
-0.00889955
-0.00774746
-0.00667558
-0.005726
-0.00492411
-0.00427793
-0.00378059
-0.0034148
-0.00315813
-0.00298752
-0.0028822
-0.00282512
-0.00280293
-0.00280531
-0.00282441
-0.00285406
-0.00288936
-0.00292628
-0.00296161
-0.00299274
-0.00301765
-0.0030348
-0.00304315
-0.00304207
-0.00303138
-0.00301131
-0.00298244
-0.00294564
-0.00290203
-0.00285287
-0.00279951
-0.00274326
-0.00268541
-0.00262712
-0.0025694
-0.00251311
-0.00245891
-0.0024073
-0.00235862
-0.00231306
-0.00227067
-0.00223143
-0.00219522
-0.00216184
-0.00213107
-0.00210266
-0.00207634
-0.00205184
-0.0020289
-0.00200727
-0.00198669
-0.00196696
-0.00194788
-0.00192925
-0.00191093
-0.00189276
-0.00187462
-0.0018564
-0.00183802
-0.00181938
-0.00180043
-0.0017811
-0.00176136
-0.00174117
-0.00172051
-0.00169934
-0.00167766
-0.00165545
-0.00163272
-0.00160945
-0.00158564
-0.0015613
-0.00153642
-0.00151101
-0.00148504
-0.00145851
-0.0014314
-0.00140366
-0.00137526
-0.00134614
-0.00131622
-0.00128544
-0.00125373
-0.00122105
-0.0011874
-0.00115289
-0.00111765
-0.00108118
-0.0010501
0.00253313
0.00233495
0.00212508
0.00194702
0.00178622
0.001626
0.00145503
0.00126396
0.00104398
0.000786817
0.000484711
0.000130344
-0.000283231
-0.000762546
-0.00131357
-0.00194145
-0.00265027
-0.00344261
-0.00431929
-0.00527903
-0.00631825
-0.00743088
-0.00860837
-0.00983978
-0.0111119
-0.0124095
-0.0137157
-0.0150122
-0.0162798
-0.0174985
-0.0186482
-0.0197088
-0.0206606
-0.0214848
-0.0221637
-0.0226815
-0.0230244
-0.023181
-0.0231426
-0.022904
-0.0224649
-0.0218274
-0.0209982
-0.0199881
-0.0188122
-0.0174896
-0.0160427
-0.0144974
-0.0128818
-0.0112257
-0.00955966
-0.00791409
-0.00631816
-0.00479893
-0.00338048
-0.00208331
-0.000923887
8.5478e-05
0.000936437
0.00162416
0.00214667
0.002504
0.00269738
0.00272852
0.00259899
0.00231009
0.00186327
0.00126045
0.0005048
-0.000398433
-0.00144104
-0.00261089
-0.00389125
-0.00526044
-0.00669182
-0.00815404
-0.00961172
-0.0110263
-0.0123574
-0.013564
-0.0146064
-0.0154476
-0.0160554
-0.0164054
-0.0164783
-0.0162673
-0.0157775
-0.0150267
-0.0140466
-0.0128827
-0.0115927
-0.0102426
-0.00890136
-0.00763349
-0.00649203
-0.00551282
-0.00471205
-0.00408758
-0.00362314
-0.00329426
-0.00307381
-0.00293625
-0.00285986
-0.00282738
-0.00282545
-0.00284399
-0.00287527
-0.00291335
-0.00295349
-0.00299196
-0.00302581
-0.00305279
-0.0030712
-0.00307994
-0.00307838
-0.00306642
-0.00304438
-0.00301299
-0.00297327
-0.00292649
-0.00287408
-0.0028175
-0.00275819
-0.00269751
-0.00263668
-0.00257675
-0.00251858
-0.00246285
-0.00241003
-0.00236042
-0.00231418
-0.00227135
-0.00223183
-0.00219548
-0.00216207
-0.00213135
-0.00210304
-0.00207685
-0.0020525
-0.00202971
-0.00200821
-0.00198776
-0.00196813
-0.00194912
-0.00193055
-0.00191226
-0.0018941
-0.00187596
-0.00185772
-0.00183929
-0.00182061
-0.0018016
-0.00178221
-0.00176241
-0.00174214
-0.0017214
-0.00170017
-0.00167841
-0.00165614
-0.00163334
-0.00161002
-0.00158617