/*--------------------------------*- C++ -*----------------------------------*\
  =========                 |
  \\      /  F ield         | OpenFOAM: The Open Source CFD Toolbox
   \\    /   O peration     | Website:  https://openfoam.org
    \\  /    A nd           | Version:  8
     \\/     M anipulation  |
\*---------------------------------------------------------------------------*/
FoamFile
{
    version     2.0;
    format      ascii;
    class       surfaceScalarField;
    location    "0.7";
    object      phi;
}
// * * * * * * * * * * * * * * * * * * * * * * * * * * * * * * * * * * * * * //

dimensions      [0 3 -1 0 0 0 0];

internalField   nonuniform List<scalar> 
24170
(
-2.4899e-12
2.4899e-12
5.29246e-12
-7.78237e-12
2.21428e-11
-1.68504e-11
4.62871e-11
-2.41442e-11
7.64839e-11
-3.01968e-11
1.1202e-10
-3.55364e-11
1.52476e-10
-4.04556e-11
1.97623e-10
-4.51473e-11
2.47402e-10
-4.97793e-11
3.01963e-10
-5.45603e-11
3.61738e-10
-5.97754e-11
4.27529e-10
-6.5791e-11
5.00491e-10
-7.29624e-11
5.81549e-10
-8.10572e-11
6.67406e-10
-8.58572e-11
7.27161e-10
-5.97555e-11
6.51135e-10
7.60263e-11
1.68408e-09
-1.03294e-09
-2.29864e-12
4.78854e-12
2.40092e-11
-3.40902e-11
7.78976e-11
-7.07388e-11
1.54152e-10
-1.00399e-10
2.49166e-10
-1.25211e-10
3.60619e-10
-1.46989e-10
4.87013e-10
-1.6685e-10
6.27337e-10
-1.85471e-10
7.80936e-10
-2.03378e-10
9.47494e-10
-2.21119e-10
1.12698e-09
-2.39265e-10
1.31931e-09
-2.58121e-10
1.52298e-09
-2.76631e-10
1.7305e-09
-2.88573e-10
1.91272e-09
-2.68083e-10
1.96674e-09
-1.13768e-10
1.49914e-09
5.43623e-10
3.76523e-09
-5.82021e-10
2.67013e-12
2.11841e-12
5.27148e-11
-8.41349e-11
1.497e-10
-1.67724e-10
2.8535e-10
-2.36049e-10
4.53634e-10
-2.93495e-10
6.50369e-10
-3.43724e-10
8.72616e-10
-3.89097e-10
1.11809e-09
-4.30945e-10
1.38485e-09
-4.70134e-10
1.67103e-09
-5.073e-10
1.97435e-09
-5.42586e-10
2.29068e-09
-5.74458e-10
2.61021e-09
-5.96154e-10
2.90709e-09
-5.85452e-10
3.11204e-09
-4.73031e-10
3.04169e-09
-4.3418e-11
2.21137e-09
1.37394e-09
5.924e-09
5.26024e-11
1.22888e-11
-1.01704e-11
9.21829e-11
-1.64029e-10
2.38823e-10
-3.14364e-10
4.41336e-10
-4.38562e-10
6.9121e-10
-5.43369e-10
9.8215e-10
-6.34663e-10
1.30934e-09
-7.16284e-10
1.66858e-09
-7.90191e-10
2.05574e-09
-8.5729e-10
2.46601e-09
-9.17576e-10
2.89269e-09
-9.69266e-10
3.32419e-09
-1.00596e-09
3.73725e-09
-1.00921e-09
4.08159e-09
-9.29786e-10
4.24679e-09
-6.38237e-10
4.00167e-09
2.01702e-10
2.92482e-09
2.45079e-09
8.04001e-09
8.08817e-10
2.66346e-11
-3.6805e-11
1.42903e-10
-2.80297e-10
3.46044e-10
-5.17505e-10
6.22778e-10
-7.15296e-10
9.6206e-10
-8.82651e-10
1.35521e-09
-1.02782e-09
1.79503e-09
-1.1561e-09
2.27468e-09
-1.26984e-09
2.7867e-09
-1.36932e-09
3.32181e-09
-1.45268e-09
3.8666e-09
-1.51405e-09
4.39901e-09
-1.53837e-09
4.87914e-09
-1.48934e-09
5.23173e-09
-1.28238e-09
5.31668e-09
-7.2319e-10
4.89737e-09
6.21013e-10
3.67563e-09
3.67253e-09
1.00209e-08
1.6947e-09
4.55299e-11
-8.23349e-11
2.04863e-10
-4.3963e-10
4.71299e-10
-7.83941e-10
8.29106e-10
-1.0731e-09
1.26462e-09
-1.31817e-09
1.7665e-09
-1.52969e-09
2.32459e-09
-1.71419e-09
2.92856e-09
-1.87381e-09
3.56652e-09
-2.00727e-09
4.22307e-09
-2.10924e-09
4.87617e-09
-2.16715e-09
5.49133e-09
-2.15353e-09
6.01151e-09
-2.00952e-09
6.34121e-09
-1.61208e-09
6.32808e-09
-7.10059e-10
5.7644e-09
1.1847e-09
4.48442e-09
4.95251e-09
1.18149e-08
2.69043e-09
6.85825e-11
-1.50917e-10
2.77387e-10
-6.48434e-10
6.13397e-10
-1.11995e-09
1.05811e-09
-1.51781e-09
1.59509e-09
-1.85516e-09
2.21003e-09
-2.14462e-09
2.88926e-09
-2.39342e-09
3.61814e-09
-2.60269e-09
4.37918e-09
-2.76831e-09
5.14958e-09
-2.87964e-09
5.89738e-09
-2.91495e-09
6.57526e-09
-2.83141e-09
7.11135e-09
-2.54562e-09
7.39841e-09
-1.89914e-09
7.2898e-09
-6.01452e-10
6.62814e-09
1.84635e-09
5.36475e-09
6.2159e-09
1.33892e-08
3.79048e-09
9.5121e-11
-2.46038e-10
3.58963e-10
-9.12276e-10
7.69688e-10
-1.53068e-09
1.30543e-09
-2.05356e-09
1.94682e-09
-2.49654e-09
2.67621e-09
-2.87402e-09
3.47596e-09
-3.19316e-09
4.32635e-09
-3.45308e-09
5.20343e-09
-3.6454e-09
6.07617e-09
-3.75237e-09
6.90242e-09
-3.7412e-09
7.62336e-09
-3.55235e-09
8.15703e-09
-3.07929e-09
8.39458e-09
-2.13669e-09
8.20996e-09
-4.16834e-10
7.50506e-09
2.55126e-09
6.32265e-09
7.39831e-09
1.4721e-08
4.99086e-09
1.24155e-10
-3.70193e-10
4.47079e-10
-1.2352e-09
9.35729e-10
-2.01933e-09
1.56413e-09
-2.68196e-09
2.30966e-09
-3.24207e-09
3.15118e-09
-3.71554e-09
4.0666e-09
-4.10859e-09
5.03067e-09
-4.41715e-09
6.01251e-09
-4.62724e-09
6.97276e-09
-4.71262e-09
7.86001e-09
-4.62845e-09
8.6069e-09
-4.29924e-09
9.12757e-09
-3.59996e-09
9.32136e-09
-2.33048e-09
9.09274e-09
-1.88209e-10
8.40183e-09
3.24217e-09
7.35558e-09
8.44456e-09
1.57915e-08
6.2851e-09
1.54328e-10
-5.24521e-10
5.38065e-10
-1.61894e-09
1.10495e-09
-2.58621e-09
1.8241e-09
-3.40111e-09
2.66942e-09
-4.08739e-09
3.61608e-09
-4.6622e-09
4.63744e-09
-5.12995e-09
5.70257e-09
-5.48228e-09
6.7738e-09
-5.69847e-09
7.80425e-09
-5.74307e-09
8.73532e-09
-5.55953e-09
9.49525e-09
-5.05916e-09
1.00009e-08
-4.1056e-09
1.01677e-08
-2.49728e-09
9.93515e-09
4.43353e-11
9.31416e-09
3.86316e-09
8.45154e-09
9.30719e-09
1.65822e-08
7.66082e-09
1.84069e-10
-7.0859e-10
6.26989e-10
-2.06186e-09
1.26838e-09
-3.22761e-09
2.07171e-09
-4.20444e-09
3.00724e-09
-5.02292e-09
4.04651e-09
-5.70147e-09
5.15853e-09
-6.24196e-09
6.30707e-09
-6.63082e-09
7.44855e-09
-6.83995e-09
8.53024e-09
-6.82476e-09
9.48941e-09
-6.5187e-09
1.02546e-08
-5.82433e-09
1.07513e-08
-4.6023e-09
1.09162e-08
-2.66222e-09
1.07238e-08
2.36764e-10
1.0225e-08
4.36196e-09
9.58719e-09
9.94498e-09
1.70733e-08
9.09608e-09
1.77178e-10
-8.85769e-10
5.91949e-10
-2.47663e-09
1.18437e-09
-3.82002e-09
1.91848e-09
-4.93855e-09
2.76625e-09
-5.8707e-09
3.70117e-09
-6.6364e-09
4.69418e-09
-7.23496e-09
5.71137e-09
-7.64802e-09
6.71257e-09
-7.84115e-09
7.65067e-09
-7.76285e-09
8.47224e-09
-7.34027e-09
9.12064e-09
-6.47273e-09
9.54315e-09
-5.02481e-09
9.70437e-09
-2.82344e-09
9.60687e-09
3.34266e-10
9.31589e-09
4.65294e-09
8.97761e-09
1.02833e-08
1.72409e-08
8.81e-09
2.22293e-10
-1.10806e-09
7.36892e-10
-2.99123e-09
1.46154e-09
-4.54467e-09
2.35056e-09
-5.82757e-09
3.36917e-09
-6.88931e-09
4.4847e-09
-7.75193e-09
5.66144e-09
-8.41171e-09
6.85806e-09
-8.84463e-09
8.02644e-09
-9.00953e-09
9.11202e-09
-8.84843e-09
1.00561e-08
-8.28435e-09
1.08012e-08
-7.21784e-09
1.1301e-08
-5.52456e-09
1.15353e-08
-3.05773e-09
1.15301e-08
3.39427e-10
1.13771e-08
4.80597e-09
1.12416e-08
1.04187e-08
1.71391e-08
1.13434e-08
2.6896e-10
-1.37702e-09
8.86554e-10
-3.60882e-09
1.74465e-09
-5.40277e-09
2.78641e-09
-6.86932e-09
3.97016e-09
-8.07306e-09
5.25722e-09
-9.03899e-09
6.60579e-09
-9.76027e-09
7.96809e-09
-1.02069e-08
9.28991e-09
-1.03314e-08
1.05123e-08
-1.00708e-08
1.15759e-08
-9.34791e-09
1.24284e-08
-8.07042e-09
1.30368e-08
-6.13296e-09
1.34022e-08
-3.42308e-09
1.35766e-08
1.65027e-10
1.36753e-08
4.70732e-09
1.3875e-08
1.0219e-08
1.66241e-08
1.439e-08
3.06754e-10
-1.68378e-09
1.00586e-09
-4.30793e-09
1.9658e-09
-6.36271e-09
3.11926e-09
-8.02277e-09
4.41935e-09
-9.37315e-09
5.82362e-09
-1.04433e-08
7.28703e-09
-1.12237e-08
8.75921e-09
-1.16791e-08
1.01849e-08
-1.1757e-08
1.15069e-08
-1.13929e-08
1.26726e-08
-1.05136e-08
1.3643e-08
-9.04076e-09
1.44046e-08
-6.89463e-09
1.49835e-08
-4.00193e-09
1.54561e-08
-3.07566e-10
1.59543e-08
4.2091e-09
1.66566e-08
9.51664e-09
1.55175e-08
1.77633e-08
3.14334e-10
-1.99811e-09
1.02504e-09
-5.01863e-09
1.99081e-09
-7.32848e-09
3.14043e-09
-9.17239e-09
4.42751e-09
-1.06602e-08
5.81185e-09
-1.18276e-08
7.25217e-09
-1.2664e-08
8.70369e-09
-1.31306e-08
1.01193e-08
-1.31727e-08
1.1454e-08
-1.27275e-08
1.26715e-08
-1.17311e-08
1.3754e-08
-1.01233e-08
1.47128e-08
-7.8534e-09
1.55977e-08
-4.88681e-09
1.65032e-08
-1.21314e-09
1.75673e-08
3.145e-09
1.8959e-08
8.12492e-09
1.36202e-08
2.08564e-08
2.54703e-10
-2.25281e-09
8.237e-10
-5.58763e-09
1.58875e-09
-8.09353e-09
2.49249e-09
-1.00761e-08
3.5015e-09
-1.16692e-08
4.58968e-09
-1.29158e-08
5.73199e-09
-1.38063e-08
6.90287e-09
-1.43015e-08
8.07768e-09
-1.43475e-08
9.23693e-09
-1.38868e-08
1.03725e-08
-1.28667e-08
1.14953e-08
-1.12461e-08
1.26426e-08
-9.00071e-09
1.38836e-08
-6.1278e-09
1.53207e-08
-2.65019e-09
1.70847e-08
1.38097e-09
1.93238e-08
5.88579e-09
1.07586e-08
2.21854e-08
7.29805e-11
-2.32579e-09
2.26062e-10
-5.74071e-09
4.2435e-10
-8.29182e-09
6.56725e-10
-1.03085e-08
9.23391e-10
-1.19359e-08
1.22995e-09
-1.32223e-08
1.58524e-09
-1.41616e-08
2.00097e-09
-1.47172e-08
2.49292e-09
-1.48394e-08
3.08352e-09
-1.44774e-08
3.80552e-09
-1.35887e-08
4.70594e-09
-1.21465e-08
5.8494e-09
-1.01442e-08
7.31951e-09
-7.59791e-09
9.21714e-09
-4.54783e-09
1.1655e-08
-1.05691e-09
1.47491e-08
2.79174e-09
6.89933e-09
1.86084e-08
-2.8963e-10
-2.03616e-09
-9.44739e-10
-5.0856e-09
-1.83547e-09
-7.40109e-09
-2.88735e-09
-9.25662e-09
-4.04379e-09
-1.07795e-08
-5.24975e-09
-1.20164e-08
-6.44553e-09
-1.29658e-08
-7.56457e-09
-1.35982e-08
-8.53291e-09
-1.38711e-08
-9.26941e-09
-1.37409e-08
-9.68618e-09
-1.31719e-08
-9.68941e-09
-1.21433e-08
-9.18063e-09
-1.06529e-08
-8.05907e-09
-8.71947e-09
-6.22508e-09
-6.38181e-09
-3.585e-09
-3.69699e-09
-5.69895e-11
-7.36276e-10
2.41895e-09
4.42339e-09
-4.19675e-10
-1.61649e-09
-1.36791e-09
-4.13737e-09
-2.66253e-09
-6.10647e-09
-4.20841e-09
-7.71074e-09
-5.94047e-09
-9.04741e-09
-7.79938e-09
-1.01575e-08
-9.72187e-09
-1.10433e-08
-1.16372e-08
-1.16829e-08
-1.34667e-08
-1.20416e-08
-1.51253e-08
-1.20822e-08
-1.65241e-08
-1.17731e-08
-1.75732e-08
-1.10943e-08
-1.81852e-08
-1.0041e-08
-1.82787e-08
-8.62593e-09
-1.77816e-08
-6.87892e-09
-1.66339e-08
-4.84471e-09
-1.47901e-08
-2.58007e-09
-1.49671e-10
-1.22215e-08
-4.46799e-10
-1.16969e-09
-1.46324e-09
-3.12093e-09
-2.86521e-09
-4.7045e-09
-4.55984e-09
-6.01611e-09
-6.48506e-09
-7.12218e-09
-8.58534e-09
-8.0572e-09
-1.08016e-08
-8.82711e-09
-1.3067e-08
-9.41741e-09
-1.53067e-08
-9.80188e-09
-1.74386e-08
-9.95038e-09
-1.93761e-08
-9.83562e-09
-2.10319e-08
-9.43839e-09
-2.23218e-08
-8.75109e-09
-2.31681e-08
-7.77959e-09
-2.35037e-08
-6.54332e-09
-2.32746e-08
-5.07391e-09
-2.24417e-08
-3.41296e-09
-1.60929e-09
-2.0982e-08
-3.95971e-10
-7.7372e-10
-1.31275e-09
-2.20414e-09
-2.59843e-09
-3.41882e-09
-4.17639e-09
-4.43816e-09
-5.99461e-09
-5.30396e-09
-8.00678e-09
-6.04503e-09
-1.0164e-08
-6.66992e-09
-1.24107e-08
-7.17066e-09
-1.46838e-08
-7.52878e-09
-1.6913e-08
-7.72124e-09
-1.90228e-08
-7.72581e-09
-2.09358e-08
-7.52531e-09
-2.25763e-08
-7.11062e-09
-2.38735e-08
-6.48246e-09
-2.47651e-08
-5.65172e-09
-2.52002e-08
-4.63876e-09
-2.51413e-08
-3.47186e-09
-2.18578e-09
-2.45648e-08
-3.10446e-10
-4.63274e-10
-1.05242e-09
-1.46217e-09
-2.1185e-09
-2.35275e-09
-3.45097e-09
-3.10569e-09
-5.00838e-09
-3.74655e-09
-6.75411e-09
-4.2993e-09
-8.65029e-09
-4.77374e-09
-1.06543e-08
-5.16667e-09
-1.27171e-08
-5.46599e-09
-1.47832e-08
-5.65512e-09
-1.67919e-08
-5.71706e-09
-1.86796e-08
-5.63763e-09
-2.03823e-08
-5.40791e-09
-2.18391e-08
-5.02566e-09
-2.29949e-08
-4.49592e-09
-2.38031e-08
-3.83061e-09
-2.42273e-08
-3.04761e-09
-2.17016e-09
-2.42429e-08
-2.19199e-10
-2.44075e-10
-7.72682e-10
-9.08684e-10
-1.59518e-09
-1.53025e-09
-2.64483e-09
-2.05604e-09
-3.88897e-09
-2.50241e-09
-5.29936e-09
-2.88892e-09
-6.84795e-09
-3.22514e-09
-8.50384e-09
-3.51078e-09
-1.02314e-08
-3.73846e-09
-1.19895e-08
-3.89696e-09
-1.37325e-08
-3.97413e-09
-1.54109e-08
-3.9592e-09
-1.69742e-08
-3.84459e-09
-1.83729e-08
-3.62702e-09
-1.95607e-08
-3.30804e-09
-2.04974e-08
-2.89395e-09
-2.11498e-08
-2.39524e-09
-1.82631e-09
-2.14936e-08
-1.38565e-10
-1.0551e-10
-5.23292e-10
-5.23957e-10
-1.12148e-09
-9.32061e-10
-1.90255e-09
-1.27497e-09
-2.84072e-09
-1.56424e-09
-3.91458e-09
-1.81505e-09
-5.10418e-09
-2.03554e-09
-6.38825e-09
-2.22671e-09
-7.74229e-09
-2.38442e-09
-9.13768e-09
-2.50158e-09
-1.05417e-08
-2.57013e-09
-1.19183e-08
-2.58258e-09
-1.32296e-08
-2.53324e-09
-1.44377e-08
-2.41899e-09
-1.5506e-08
-2.23971e-09
-1.64017e-08
-1.9983e-09
-1.70965e-08
-1.70038e-09
-1.35413e-09
-1.75687e-08
-7.57749e-11
-2.97353e-11
-3.25196e-10
-2.74536e-10
-7.36541e-10
-5.20716e-10
-1.28672e-09
-7.24787e-10
-1.95558e-09
-8.95389e-10
-2.72736e-09
-1.04327e-09
-3.58849e-09
-1.17441e-09
-4.52513e-09
-1.29007e-09
-5.52141e-09
-1.38813e-09
-6.5585e-09
-1.46449e-09
-7.61435e-09
-1.51428e-09
-8.66411e-09
-1.53282e-09
-9.68102e-09
-1.51634e-09
-1.06375e-08
-1.46247e-09
-1.15067e-08
-1.37054e-09
-1.22634e-08
-1.24165e-09
-1.28852e-08
-1.0785e-09
-8.85181e-10
-1.33542e-08
-3.23387e-11
2.60339e-12
-1.81726e-10
-1.25148e-10
-4.47076e-10
-2.55367e-10
-8.10616e-10
-3.61247e-10
-1.25719e-09
-4.48814e-10
-1.77582e-09
-5.24643e-10
-2.35781e-09
-5.92417e-10
-2.99478e-09
-6.53096e-10
-3.67719e-09
-7.05723e-10
-4.39347e-09
-7.48219e-10
-5.12973e-09
-7.78022e-10
-5.86995e-09
-7.92597e-10
-6.59647e-09
-7.89814e-10
-7.29072e-09
-7.68216e-10
-7.93408e-09
-7.27179e-10
-8.50876e-09
-6.66972e-10
-8.99856e-09
-5.88701e-10
-4.94079e-10
-9.38966e-09
-6.63357e-12
9.23695e-12
-8.69636e-11
-4.48184e-11
-2.43208e-10
-9.9122e-11
-4.62167e-10
-1.42288e-10
-7.33415e-10
-1.77566e-10
-1.04997e-09
-2.08084e-10
-1.40682e-09
-2.35572e-10
-1.79938e-09
-2.60531e-10
-2.22249e-09
-2.82617e-10
-2.66971e-09
-3.00996e-10
-3.13313e-09
-3.14605e-10
-3.60336e-09
-3.22369e-10
-4.06982e-09
-3.23353e-10
-4.52116e-09
-3.16877e-10
-4.94575e-09
-3.02583e-10
-5.33226e-09
-2.80464e-10
-5.67012e-09
-2.50843e-10
-2.14246e-10
-5.94995e-09
4.64378e-12
4.59317e-12
-3.12249e-11
-8.94978e-12
-1.08588e-10
-2.17594e-11
-2.19181e-10
-3.16948e-11
-3.57048e-10
-3.96979e-11
-5.18515e-10
-4.66171e-11
-7.01179e-10
-5.29077e-11
-9.03001e-10
-5.8709e-11
-1.12167e-09
-6.39518e-11
-1.35422e-09
-6.84447e-11
-1.59688e-09
-7.19382e-11
-1.84508e-09
-7.41731e-11
-2.09352e-09
-7.49173e-11
-2.3364e-09
-7.39924e-11
-2.56769e-09
-7.12901e-11
-2.78138e-09
-6.67803e-11
-2.97173e-09
-6.04872e-11
-5.24918e-11
-3.13349e-09
4.59317e-12
-4.35662e-12
-2.6116e-11
-5.78108e-11
-9.75087e-11
-1.44126e-10
-1.97034e-10
-2.55743e-10
-3.19694e-10
-3.88139e-10
-4.60077e-10
-5.3425e-10
-6.09168e-10
-6.8316e-10
-7.5445e-10
-8.21231e-10
-8.81718e-10
-9.3421e-10
6.96478e-11
-6.96478e-11
2.47772e-10
-1.78124e-10
4.93841e-10
-2.46069e-10
7.67685e-10
-2.73844e-10
1.03634e-09
-2.68656e-10
1.27408e-09
-2.3774e-10
1.46165e-09
-1.87573e-10
1.58533e-09
-1.23676e-10
1.63587e-09
-5.05428e-11
1.6074e-09
2.84705e-11
1.49668e-09
1.10723e-10
1.30202e-09
1.94656e-10
1.02272e-09
2.79302e-10
6.5841e-10
3.64311e-10
2.08626e-10
4.49784e-10
-3.27513e-10
5.3614e-10
-9.51494e-10
6.23981e-10
-1.66542e-09
7.13925e-10
-2.47193e-09
8.06509e-10
-3.37402e-09
9.02089e-10
-4.37477e-09
1.00075e-09
-5.47702e-09
1.10225e-09
-6.68301e-09
1.20598e-09
-7.99396e-09
1.31095e-09
-9.40974e-09
1.41579e-09
-1.09285e-08
1.51877e-09
-1.25464e-08
1.61785e-09
-1.42571e-08
1.7107e-09
-1.60518e-08
1.79475e-09
-1.79191e-08
1.86728e-09
-1.98445e-08
1.92545e-09
-2.18109e-08
1.9664e-09
-2.37983e-08
1.98735e-09
-2.5784e-08
1.98569e-09
-2.7743e-08
1.95906e-09
-2.96485e-08
1.90549e-09
-3.1472e-08
1.82346e-09
-3.3184e-08
1.71202e-09
-3.47548e-08
1.57084e-09
-3.61551e-08
1.40027e-09
-3.73565e-08
1.2014e-09
-3.83325e-08
9.76012e-10
-3.90591e-08
7.26572e-10
-3.95153e-08
4.56211e-10
-3.96842e-08
1.68938e-10
-3.95515e-08
-1.32754e-10
-3.9109e-08
-4.42528e-10
-3.8353e-08
-7.5595e-10
-3.72845e-08
-1.06853e-09
-3.5909e-08
-1.3755e-09
-3.42365e-08
-1.67245e-09
-3.22812e-08
-1.95534e-09
-3.00605e-08
-2.22065e-09
-2.75951e-08
-2.46544e-09
-2.49077e-08
-2.68737e-09
-2.2023e-08
-2.88475e-09
-1.89665e-08
-3.05646e-09
-1.57646e-08
-3.20191e-09
-1.24437e-08
-3.32091e-09
-9.03016e-09
-3.41355e-09
-5.55014e-09
-3.48002e-09
-2.02988e-09
-3.52027e-09
1.50443e-09
-3.5343e-09
5.02646e-09
-3.52203e-09
8.50886e-09
-3.4824e-09
1.19231e-08
-3.41424e-09
1.52396e-08
-3.3165e-09
1.84272e-08
-3.18762e-09
2.14531e-08
-3.02584e-09
2.42825e-08
-2.82947e-09
2.68797e-08
-2.5972e-09
2.92081e-08
-2.32835e-09
3.12313e-08
-2.0232e-09
3.29146e-08
-1.68328e-09
3.42262e-08
-1.31162e-09
3.51392e-08
-9.12992e-10
3.56335e-08
-4.94289e-10
3.56941e-08
-6.06911e-11
3.53229e-08
3.71268e-10
3.45271e-08
7.95761e-10
3.33276e-08
1.19952e-09
3.17572e-08
1.57044e-09
2.98602e-08
1.89699e-09
2.76913e-08
2.1689e-09
2.53133e-08
2.37799e-09
2.27944e-08
2.51889e-09
2.02049e-08
2.5895e-09
1.76136e-08
2.59126e-09
1.50846e-08
2.52909e-09
1.26736e-08
2.41095e-09
1.04265e-08
2.24713e-09
8.37714e-09
2.04933e-09
6.5475e-09
1.82964e-09
4.94794e-09
1.59956e-09
3.57868e-09
1.36926e-09
2.43154e-09
1.14714e-09
1.49178e-09
9.39763e-10
7.39738e-10
7.52042e-10
1.52178e-10
5.87561e-10
-2.96676e-10
4.48853e-10
-6.34047e-10
3.37372e-10
-8.87359e-10
2.53312e-10
-1.08279e-09
1.95432e-10
-1.24373e-09
1.60941e-10
-1.38942e-09
1.45684e-10
-1.53404e-09
1.44623e-10
-1.68652e-09
1.52482e-10
-1.8509e-09
1.64378e-10
-2.02719e-09
1.7629e-10
-2.21248e-09
1.85287e-10
-2.40201e-09
1.89538e-10
-2.59018e-09
1.88169e-10
-2.77124e-09
1.81053e-10
-2.93982e-09
1.68589e-10
-3.09134e-09
1.51515e-10
-3.2221e-09
1.3076e-10
-3.32944e-09
1.07345e-10
-3.41175e-09
8.23002e-11
-3.46836e-09
5.66179e-11
-3.49957e-09
3.12068e-11
-3.5065e-09
6.9298e-12
-3.49075e-09
-1.57461e-11
-3.45471e-09
-3.60445e-11
-3.40096e-09
-5.37474e-11
-3.33236e-09
-6.8599e-11
-3.25185e-09
-8.05131e-11
-3.16232e-09
-8.95248e-11
-3.06656e-09
-9.57688e-11
-2.9671e-09
-9.94587e-11
-2.86623e-09
-1.00864e-10
-2.76595e-09
-1.00287e-10
-2.6679e-09
-9.80466e-11
-2.57344e-09
-9.44608e-11
-2.48361e-09
-8.98332e-11
-2.39916e-09
-8.44443e-11
-2.32062e-09
-7.85455e-11
-2.24826e-09
-7.23548e-11
-2.1822e-09
-6.6057e-11
-2.1224e-09
-5.98031e-11
-2.06869e-09
-5.3713e-11
-2.02081e-09
-4.78783e-11
-1.97844e-09
-4.23657e-11
-1.94122e-09
-3.72205e-11
-1.90875e-09
-3.24701e-11
-1.88063e-09
-2.81274e-11
-1.85643e-09
-2.4194e-11
-1.83577e-09
-2.06626e-11
-1.81825e-09
-1.75192e-11
-1.80351e-09
-1.47453e-11
-1.79119e-09
-1.23188e-11
-1.78097e-09
-1.02158e-11
-1.77256e-09
-8.41108e-12
-1.76568e-09
-6.87905e-12
-1.76009e-09
-5.5941e-12
-1.75556e-09
-4.53109e-12
-1.75189e-09
-3.66344e-12
-1.74893e-09
-2.96627e-12
-1.74651e-09
-2.41405e-12
-1.74453e-09
-1.98033e-12
-1.74289e-09
-1.63723e-12
-1.74154e-09
-1.35518e-12
-1.74044e-09
-1.10278e-12
-1.73959e-09
-8.48236e-13
-1.73903e-09
-5.57829e-13
-1.73883e-09
-2.0069e-13
-1.73904e-09
2.0785e-13
-1.73971e-09
6.72863e-13
-1.74084e-09
1.12871e-12
-1.74234e-09
1.50046e-12
-1.74396e-09
1.62077e-12
-1.74523e-09
1.27001e-12
-1.74543e-09
2.03637e-13
-1.74336e-09
-2.07728e-12
-1.73752e-09
-5.83892e-12
-1.72581e-09
-1.17088e-11
-1.70535e-09
-2.04601e-11
-1.67168e-09
-3.36637e-11
-1.61654e-09
-5.5146e-11
-1.52893e-09
-8.76072e-11
-1.93119e-10
-1.33581e-09
1.36017e-10
-2.05665e-10
4.33858e-10
-4.75965e-10
8.08595e-10
-6.20806e-10
1.19133e-09
-6.56584e-10
1.52439e-09
-6.0171e-10
1.76077e-09
-4.74126e-10
1.86323e-09
-2.90024e-10
1.80298e-09
-6.3427e-11
1.55836e-09
1.94077e-10
1.11357e-09
4.73261e-10
4.57141e-10
7.67147e-10
-4.19031e-10
1.07083e-09
-1.52092e-09
1.38119e-09
-2.8532e-09
1.69659e-09
-4.41996e-09
2.01654e-09
-6.22514e-09
2.34132e-09
-8.27274e-09
2.67158e-09
-1.05668e-08
3.00797e-09
-1.3111e-08
3.35078e-09
-1.59086e-08
3.69963e-09
-1.89611e-08
4.05324e-09
-2.2268e-08
4.40921e-09
-2.58261e-08
4.764e-09
-2.9628e-08
5.11286e-09
-3.36621e-08
5.44991e-09
-3.79116e-08
5.76826e-09
-4.23539e-08
6.06017e-09
-4.69604e-08
6.31724e-09
-5.16964e-08
6.53069e-09
-5.65207e-08
6.69161e-09
-6.13865e-08
6.79126e-09
-6.62415e-08
6.82137e-09
-7.10286e-08
6.77446e-09
-7.56871e-08
6.64416e-09
-8.01535e-08
6.42545e-09
-8.4363e-08
6.11498e-09
-8.82507e-08
5.7112e-09
-9.17532e-08
5.21456e-09
-9.481e-08
4.62757e-09
-9.73645e-08
3.95478e-09
-9.93658e-08
3.20276e-09
-1.0077e-07
2.37991e-09
-1.01539e-07
1.49624e-09
-1.01647e-07
5.63307e-10
-1.01071e-07
-4.06559e-10
-9.98034e-08
-1.40033e-09
-9.78428e-08
-2.40315e-09
-9.51972e-08
-3.40152e-09
-9.18835e-08
-4.38227e-09
-8.79261e-08
-5.33295e-09
-8.33563e-08
-6.24219e-09
-7.82117e-08
-7.1e-09
-7.25344e-08
-7.89792e-09
-6.63706e-08
-8.6292e-09
-5.97692e-08
-9.28877e-09
-5.27807e-08
-9.87323e-09
-4.54565e-08
-1.03807e-08
-3.78478e-08
-1.08106e-08
-3.00056e-08
-1.11631e-08
-2.19798e-08
-1.14393e-08
-1.38197e-08
-1.16401e-08
-5.57382e-09
-1.17662e-08
2.709e-09
-1.18171e-08
1.09781e-08
-1.17911e-08
1.91816e-08
-1.16859e-08
2.7266e-08
-1.14986e-08
3.51743e-08
-1.12248e-08
4.28456e-08
-1.0859e-08
5.02144e-08
-1.03946e-08
5.72102e-08
-9.82527e-09
6.37579e-08
-9.14487e-09
6.97784e-08
-8.34881e-09
7.51899e-08
-7.43469e-09
7.99098e-08
-6.40322e-09
8.38573e-08
-5.25909e-09
8.6956e-08
-4.01175e-09
8.91377e-08
-2.67596e-09
9.0349e-08
-1.27198e-09
9.05466e-08
1.73654e-10
8.97165e-08
1.6259e-09
8.78645e-08
3.05145e-09
8.50256e-08
4.40935e-09
8.12637e-08
5.65888e-09
7.66724e-08
6.76018e-09
7.13732e-08
7.67719e-09
6.55116e-08
8.38051e-09
5.9251e-08
8.85011e-09
5.27648e-08
9.07743e-09
4.62274e-08
9.06655e-09
3.98042e-08
8.83409e-09
3.36435e-08
8.40785e-09
2.78687e-08
7.82416e-09
2.25739e-08
7.12444e-09
1.7822e-08
6.35144e-09
1.36455e-08
5.5458e-09
1.0049e-08
4.74358e-09
7.0139e-09
3.97489e-09
4.50226e-09
3.26368e-09
2.46164e-09
2.62818e-09
8.29083e-10
2.08141e-09
-4.64891e-10
1.63135e-09
-1.49202e-09
1.28045e-09
-2.32178e-09
1.02518e-09
-3.01704e-09
8.56201e-10
-3.63058e-09
7.59224e-10
-4.20272e-09
7.16761e-10
-4.76058e-09
7.10349e-10
-5.31892e-09
7.22716e-10
-5.88203e-09
7.39403e-10
-6.44635e-09
7.49607e-10
-7.00312e-09
7.46303e-10
-7.54079e-09
7.25834e-10
-8.04697e-09
6.87243e-10
-8.50992e-09
6.31536e-10
-8.91944e-09
5.61035e-10
-9.26752e-09
4.78837e-10
-9.5486e-09
3.88422e-10
-9.75965e-09
2.93352e-10
-9.90009e-09
1.97059e-10
-9.97157e-09
1.02688e-10
-9.97767e-09
1.3028e-11
-9.9236e-09
-6.98139e-11
-9.81572e-09
-1.43923e-10
-9.66129e-09
-2.08175e-10
-9.46802e-09
-2.61874e-10
-9.24373e-09
-3.04798e-10
-8.99612e-09
-3.37142e-10
-8.73244e-09
-3.59443e-10
-8.4594e-09
-3.72501e-10
-8.18296e-09
-3.77303e-10
-7.9083e-09
-3.74949e-10
-7.63976e-09
-3.66586e-10
-7.38087e-09
-3.53354e-10
-7.13436e-09
-3.36341e-10
-6.90225e-09
-3.16555e-10
-6.6859e-09
-2.94895e-10
-6.48611e-09
-2.72148e-10
-6.30318e-09
-2.48979e-10
-6.13705e-09
-2.25935e-10
-5.98731e-09
-2.03454e-10
-5.85332e-09
-1.81872e-10
-5.73425e-09
-1.61436e-10
-5.62915e-09
-1.42316e-10
-5.537e-09
-1.24619e-10
-5.45673e-09
-1.08399e-10
-5.38726e-09
-9.36665e-11
-5.32752e-09
-8.04014e-11
-5.27648e-09
-6.85577e-11
-5.23315e-09
-5.80716e-11
-5.19661e-09
-4.88667e-11
-5.16596e-09
-4.08583e-11
-5.14042e-09
-3.3957e-11
-5.11923e-09
-2.80704e-11
-5.10171e-09
-2.3106e-11
-5.08727e-09
-1.89709e-11
-5.07537e-09
-1.55724e-11
-5.06551e-09
-1.28177e-11
-5.05732e-09
-1.06132e-11
-5.05043e-09
-8.86208e-12
-5.04461e-09
-7.46302e-12
-5.03965e-09
-6.30922e-12
-5.03547e-09
-5.28911e-12
-5.03202e-09
-4.29137e-12
-5.02937e-09
-3.21331e-12
-5.02759e-09
-1.98162e-12
-5.02679e-09
-5.86083e-13
-5.02703e-09
9.13933e-13
-5.0282e-09
2.29229e-12
-5.0299e-09
3.1982e-12
-5.03131e-09
3.02978e-12
-5.03101e-09
9.79531e-13
-5.02678e-09
-4.03078e-12
-5.01553e-09
-1.33233e-11
-4.99294e-09
-2.84316e-11
-4.95334e-09
-5.1313e-11
-4.88918e-09
-8.46157e-11
-4.78989e-09
-1.32958e-10
-4.64001e-09
-2.05026e-10
-4.41191e-09
-3.15704e-10
-5.38532e-10
-4.0665e-09
1.17375e-10
-3.2304e-10
3.45912e-10
-7.04502e-10
5.89132e-10
-8.64026e-10
7.707e-10
-8.38152e-10
8.28265e-10
-6.59276e-10
7.10702e-10
-3.56562e-10
3.7628e-10
4.43971e-11
-2.08627e-10
5.2148e-10
-1.07106e-09
1.05651e-09
-2.2325e-09
1.6347e-09
-3.70997e-09
2.24462e-09
-5.51702e-09
2.87787e-09
-7.66451e-09
3.52868e-09
-1.01613e-08
4.19341e-09
-1.30148e-08
4.86997e-09
-1.62307e-08
5.55727e-09
-1.98136e-08
6.25448e-09
-2.37661e-08
6.96049e-09
-2.80885e-08
7.67319e-09
-3.2778e-08
8.38908e-09
-3.78275e-08
9.10278e-09
-4.32252e-08
9.80688e-09
-4.8953e-08
1.04918e-08
-5.4986e-08
1.11459e-08
-6.12918e-08
1.17557e-08
-6.783e-08
1.23064e-08
-7.45517e-08
1.27819e-08
-8.14003e-08
1.31658e-08
-8.83113e-08
1.34417e-08
-9.52135e-08
1.35938e-08
-1.0203e-07
1.36077e-08
-1.08679e-07
1.34708e-08
-1.15078e-07
1.31727e-08
-1.2114e-07
1.27061e-08
-1.26781e-07
1.20666e-08
-1.31919e-07
1.12535e-08
-1.36478e-07
1.02696e-08
-1.40384e-07
9.12111e-09
-1.43575e-07
7.818e-09
-1.45993e-07
6.37337e-09
-1.47594e-07
4.80329e-09
-1.4834e-07
3.12636e-09
-1.48207e-07
1.36328e-09
-1.4718e-07
-4.63412e-10
-1.45257e-07
-2.3303e-09
-1.42444e-07
-4.21314e-09
-1.38759e-07
-6.08837e-09
-1.34227e-07
-7.93338e-09
-1.28882e-07
-9.72679e-09
-1.22766e-07
-1.1449e-08
-1.15926e-07
-1.30827e-08
-1.08413e-07
-1.46128e-08
-1.00283e-07
-1.60273e-08
-9.15958e-08
-1.73168e-08
-8.24098e-08
-1.84748e-08
-7.27854e-08
-1.94976e-08
-6.27825e-08
-2.03837e-08
-5.24594e-08
-2.11336e-08
-4.18732e-08
-2.17494e-08
-3.10789e-08
-2.22336e-08
-2.01302e-08
-2.25889e-08
-9.07929e-09
-2.2817e-08
2.02193e-09
-2.29183e-08
1.31203e-08
-2.28895e-08
2.41606e-08
-2.27262e-08
3.50851e-08
-2.24231e-08
4.58316e-08
-2.19714e-08
5.63327e-08
-2.13601e-08
6.65144e-08
-2.05763e-08
7.62956e-08
-1.96064e-08
8.55876e-08
-1.84369e-08
9.42949e-08
-1.7056e-08
1.02315e-07
-1.54549e-08
1.09541e-07
-1.36292e-08
1.15863e-07
-1.15807e-08
1.2117e-07
-9.31896e-09
1.25356e-07
-6.86218e-09
1.28323e-07
-4.23879e-09
1.29985e-07
-1.48813e-09
1.30273e-07
1.33731e-09
1.29149e-07
4.17596e-09
1.26603e-07
6.9555e-09
1.22664e-07
9.59765e-09
1.17403e-07
1.20209e-08
1.10935e-07
1.4145e-08
1.03419e-07
1.58969e-08
9.50523e-08
1.72166e-08
8.60661e-08
1.80636e-08
7.67115e-08
1.84212e-08
6.7246e-08
1.82995e-08
5.79185e-08
1.77354e-08
4.89537e-08
1.67889e-08
4.05406e-08
1.55376e-08
3.2823e-08
1.4069e-08
2.58968e-08
1.2472e-08
1.98099e-08
1.08305e-08
1.45667e-08
9.21811e-09
1.01343e-08
7.69605e-09
6.45014e-09
6.31237e-09
3.42925e-09
5.1023e-09
9.72343e-10
4.08825e-09
-1.02661e-09
3.2794e-09
-2.67252e-09
2.67109e-09
-4.0618e-09
2.24548e-09
-5.27664e-09
1.97407e-09
-6.38131e-09
1.82143e-09
-7.42084e-09
1.74988e-09
-8.42202e-09
1.72389e-09
-9.39604e-09
1.71342e-09
-1.03422e-08
1.69575e-09
-1.12516e-08
1.65574e-09
-1.2111e-08
1.58518e-09
-1.29052e-08
1.48145e-09
-1.36197e-08
1.34607e-09
-1.42421e-08
1.18338e-09
-1.47627e-08
9.99452e-10
-1.51754e-08
8.01171e-10
-1.54777e-08
5.95646e-10
-1.56704e-08
3.89721e-10
-1.57573e-08
1.89632e-10
-1.57451e-08
8.28773e-13
-1.56425e-08
-1.72436e-10
-1.54597e-08
-3.26688e-10
-1.52082e-08
-4.5975e-10
-1.48996e-08
-5.70414e-10
-1.4546e-08
-6.58417e-10
-1.41588e-08
-7.24315e-10
-1.37489e-08
-7.69331e-10
-1.33262e-08
-7.95198e-10
-1.28995e-08
-8.04007e-10
-1.24764e-08
-7.98057e-10
-1.20633e-08
-7.7973e-10
-1.16653e-08
-7.51379e-10
-1.12864e-08
-7.15249e-10
-1.09295e-08
-6.73407e-10
-1.05967e-08
-6.27707e-10
-1.02891e-08
-5.79763e-10
-1.00071e-08
-5.30946e-10
-9.75066e-09
-4.82385e-10
-9.51913e-09
-4.34983e-10
-9.31156e-09
-3.89438e-10
-9.12673e-09
-3.46266e-10
-8.96322e-09
-3.05825e-10
-8.8195e-09
-2.68342e-10
-8.69396e-09
-2.33932e-10
-8.585e-09
-2.02628e-10
-8.49101e-09
-1.74391e-10
-8.41044e-09
-1.49131e-10
-8.34179e-09
-1.26721e-10
-8.28365e-09
-1.07006e-10
-8.2347e-09
-8.98124e-11
-8.1937e-09
-7.49564e-11
-8.15952e-09
-6.22482e-11
-8.13113e-09
-5.14952e-11
-8.1076e-09
-4.25047e-11
-8.08808e-09
-3.50837e-11
-8.07186e-09
-2.90393e-11
-8.0583e-09
-2.41754e-11
-8.04687e-09
-2.02908e-11
-8.03716e-09
-1.71759e-11
-8.02886e-09
-1.46119e-11
-8.02177e-09
-1.23734e-11
-8.01582e-09
-1.02398e-11
-8.01102e-09
-8.0163e-12
-8.00743e-09
-5.57439e-12
-8.00511e-09
-2.90471e-12
-8.00401e-09
-1.86554e-13
-8.00383e-09
2.11624e-12
-8.00383e-09
3.19136e-12
-8.00258e-09
1.7835e-12
-7.99777e-09
-3.83047e-12
-7.98593e-09
-1.58721e-11
-7.96222e-09
-3.70299e-11
-7.92016e-09
-7.04945e-11
-7.85137e-09
-1.20107e-10
-7.74512e-09
-1.90865e-10
-7.58763e-09
-2.90443e-10
-7.36081e-09
-4.31847e-10
-7.03817e-09
-6.38346e-10
-9.54555e-10
-6.62214e-09
4.18475e-11
-3.64887e-10
6.65248e-11
-7.29179e-10
-8.41363e-12
-7.89087e-10
-2.49154e-10
-5.97412e-10
-7.09742e-10
-1.98688e-10
-1.43472e-09
3.68415e-10
-2.46112e-09
1.0708e-09
-3.82015e-09
1.88051e-09
-5.53797e-09
2.77434e-09
-7.6368e-09
3.73353e-09
-1.01355e-08
4.74327e-09
-1.30498e-08
5.79221e-09
-1.6393e-08
6.87186e-09
-2.01755e-08
7.97592e-09
-2.44051e-08
9.09958e-09
-2.90865e-08
1.02386e-08
-3.42206e-08
1.13887e-08
-3.98043e-08
1.25442e-08
-4.58289e-08
1.36978e-08
-5.22796e-08
1.48398e-08
-5.91345e-08
1.59576e-08
-6.63632e-08
1.70356e-08
-7.39267e-08
1.80553e-08
-8.17766e-08
1.89958e-08
-8.9855e-08
1.98341e-08
-9.80948e-08
2.05462e-08
-1.0642e-07
2.11075e-08
-1.14749e-07
2.14941e-08
-1.22991e-07
2.16835e-08
-1.31052e-07
2.16556e-08
-1.38838e-07
2.13936e-08
-1.46252e-07
2.08844e-08
-1.53198e-07
2.01194e-08
-1.59587e-07
1.9095e-08
-1.65333e-07
1.78123e-08
-1.70357e-07
1.62779e-08
-1.74591e-07
1.45029e-08
-1.77973e-07
1.25034e-08
-1.80455e-07
1.02995e-08
-1.81996e-07
7.9152e-09
-1.82571e-07
5.37766e-09
-1.82161e-07
2.71652e-09
-1.80761e-07
-3.6403e-11
-1.78377e-07
-2.84797e-09
-1.75022e-07
-5.68482e-09
-1.70721e-07
-8.51445e-09
-1.65504e-07
-1.13053e-08
-1.5941e-07
-1.40272e-08
-1.52485e-07
-1.66523e-08
-1.44778e-07
-1.91555e-08
-1.36346e-07
-2.15148e-08
-1.27247e-07
-2.37119e-08
-1.17542e-07
-2.57321e-08
-1.07294e-07
-2.75651e-08
-9.65646e-08
-2.92041e-08
-8.54158e-08
-3.06464e-08
-7.39072e-08
-3.18923e-08
-6.20962e-08
-3.29446e-08
-5.00376e-08
-3.3808e-08
-3.77831e-08
-3.44881e-08
-2.53819e-08
-3.49901e-08
-1.28811e-08
-3.53178e-08
-3.26994e-10
-3.54725e-08
1.22353e-08
-3.54518e-08
2.47584e-08
-3.52493e-08
3.71909e-08
-3.48555e-08
4.9477e-08
-3.42575e-08
6.1555e-08
-3.34381e-08
7.33561e-08
-3.23774e-08
8.48027e-08
-3.1053e-08
9.58084e-08
-2.94426e-08
1.06277e-07
-2.7525e-08
1.16105e-07
-2.52822e-08
1.25177e-07
-2.27018e-08
1.33375e-07
-1.97785e-08
1.40573e-07
-1.65169e-08
1.46644e-07
-1.2933e-08
1.51462e-07
-9.05644e-09
1.54906e-07
-4.93214e-09
1.56865e-07
-6.21818e-10
1.57246e-07
3.79471e-09
1.55983e-07
8.21859e-09
1.53043e-07
1.2537e-08
1.48439e-07
1.66257e-08
1.42229e-07
2.03544e-08
1.34532e-07
2.3594e-08
1.25522e-07
2.62267e-08
1.15429e-07
2.81566e-08
1.0453e-07
2.93199e-08
9.31363e-08
2.96937e-08
8.15713e-08
2.93004e-08
7.01528e-08
2.82074e-08
5.91697e-08
2.65207e-08
4.88643e-08
2.43743e-08
3.94203e-08
2.19161e-08
3.09565e-08
1.92943e-08
2.35282e-08
1.66464e-08
1.71329e-08
1.40914e-08
1.17193e-08
1.1726e-08
7.19814e-09