/*--------------------------------*- C++ -*----------------------------------*\
  =========                 |
  \\      /  F ield         | OpenFOAM: The Open Source CFD Toolbox
   \\    /   O peration     | Website:  https://openfoam.org
    \\  /    A nd           | Version:  8
     \\/     M anipulation  |
\*---------------------------------------------------------------------------*/
FoamFile
{
    version     2.0;
    format      ascii;
    class       volVectorField;
    location    "0.7";
    object      U;
}
// * * * * * * * * * * * * * * * * * * * * * * * * * * * * * * * * * * * * * //

dimensions      [0 1 -1 0 0 0 0];

internalField   nonuniform List<vector> 
12225
(
(-8.96676e-06 1.21429e-06 0)
(-3.53865e-06 -7.18872e-07 0)
(3.66969e-05 -1.79538e-06 0)
(0.00010169 -2.75886e-06 0)
(0.000187452 -3.61073e-06 0)
(0.000290791 -4.45028e-06 0)
(0.0004101 -5.31116e-06 0)
(0.000544389 -6.23013e-06 0)
(0.000693217 -7.24799e-06 0)
(0.00085671 -8.43297e-06 0)
(0.00103579 -9.9041e-06 0)
(0.0012325 -1.18713e-05 0)
(0.00145042 -1.47201e-05 0)
(0.00169435 -1.90875e-05 0)
(0.00196775 -2.493e-05 0)
(0.00226672 -2.56248e-05 0)
(0.00251138 -3.99209e-05 0)
(0.000477361 0.0014343 0)
(-1.82389e-05 2.98046e-06 0)
(8.85974e-06 -1.10443e-05 0)
(0.000130457 -2.48891e-05 0)
(0.000322895 -3.70835e-05 0)
(0.000575082 -4.82961e-05 0)
(0.00087801 -5.91727e-05 0)
(0.00122654 -7.01271e-05 0)
(0.00161711 -8.1456e-05 0)
(0.00204735 -9.34595e-05 0)
(0.00251588 -0.000106553 0)
(0.00302239 -0.000121347 0)
(0.00356737 -0.000138647 0)
(0.00415057 -0.000159162 0)
(0.00476466 -0.000181807 0)
(0.005376 -0.000194863 0)
(0.00585758 -0.000130838 0)
(0.00583743 0.000307315 0)
(0.00187429 0.00355618 0)
(-2.09638e-05 3.20135e-06 0)
(3.9114e-05 -3.51086e-05 0)
(0.000245854 -7.50163e-05 0)
(0.000566627 -0.000110627 0)
(0.00098414 -0.000143599 0)
(0.00148397 -0.000175475 0)
(0.00205706 -0.000207313 0)
(0.00269648 -0.000239788 0)
(0.00339666 -0.000273476 0)
(0.00415264 -0.000309026 0)
(0.0049594 -0.000347103 0)
(0.0058098 -0.000387805 0)
(0.0066891 -0.000428456 0)
(0.00755912 -0.000456057 0)
(0.00831839 -0.000419909 0)
(0.00868252 -0.000130356 0)
(0.0080392 0.00109922 0)
(0.00333511 0.00612274 0)
(-1.87681e-05 -9.34287e-07 0)
(8.47224e-05 -7.71212e-05 0)
(0.000380233 -0.00015779 0)
(0.000829134 -0.000230598 0)
(0.00140887 -0.000298304 0)
(0.00210006 -0.000363572 0)
(0.00288932 -0.000428258 0)
(0.00376555 -0.00049339 0)
(0.0047185 -0.000559588 0)
(0.00573737 -0.00062717 0)
(0.00680874 -0.000695617 0)
(0.00791209 -0.000761542 0)
(0.00900944 -0.000812652 0)
(0.0100206 -0.000810446 0)
(0.0107702 -0.000638452 0)
(0.0108588 5.13369e-05 0)
(0.00960525 0.00228378 0)
(0.00484717 0.00886033 0)
(-1.30361e-05 -1.26518e-05 0)
(0.000142784 -0.000141033 0)
(0.000529906 -0.000277244 0)
(0.00110522 -0.000401435 0)
(0.00184169 -0.000517297 0)
(0.0027154 -0.000628655 0)
(0.00370834 -0.000738109 0)
(0.00480435 -0.000846769 0)
(0.00598707 -0.000954704 0)
(0.00723757 -0.00106075 0)
(0.00853077 -0.00116102 0)
(0.00982829 -0.00124447 0)
(0.0110641 -0.00128141 0)
(0.0121147 -0.00119462 0)
(0.0127462 -0.000785615 0)
(0.0125162 0.000444905 0)
(0.0108199 0.00371049 0)
(0.00637782 0.0114876 0)
(-4.92041e-06 -3.49846e-05 0)
(0.000209985 -0.000231156 0)
(0.000690056 -0.000437845 0)
(0.00138804 -0.000627874 0)
(0.00227289 -0.000805573 0)
(0.00331661 -0.000975786 0)
(0.00449627 -0.00114157 0)
(0.00578987 -0.00130355 0)
(0.00717364 -0.00146026 0)
(0.00861865 -0.00160734 0)
(0.0100858 -0.0017346 0)
(0.0115166 -0.00181844 0)
(0.012817 -0.00180433 0)
(0.0138282 -0.00156746 0)
(0.0142859 -0.000826396 0)
(0.0137717 0.00103031 0)
(0.0118384 0.00525348 0)
(0.00789574 0.0138878 0)
(4.59291e-06 -7.07114e-05 0)
(0.000282619 -0.000351876 0)
(0.000854745 -0.00064416 0)
(0.00166904 -0.00091453 0)
(0.00269065 -0.00116772 0)
(0.00388783 -0.00140927 0)
(0.00523259 -0.00164217 0)
(0.00669651 -0.00186572 0)
(0.00824743 -0.00207553 0)
(0.00984527 -0.00226187 0)
(0.011436 -0.00240495 0)
(0.0129415 -0.00246402 0)
(0.0142445 -0.0023543 0)
(0.0151651 -0.00190123 0)
(0.0154399 -0.00075352 0)
(0.0147219 0.00175973 0)
(0.0127436 0.00681543 0)
(0.0093792 0.0160206 0)
(1.465e-05 -0.000122273 0)
(0.000356646 -0.000507238 0)
(0.00101697 -0.00090024 0)
(0.00193804 -0.00126512 0)
(0.00308105 -0.00160694 0)
(0.00441086 -0.00193153 0)
(0.0058944 -0.00224102 0)
(0.00749658 -0.00253226 0)
(0.00917648 -0.00279626 0)
(0.0108827 -0.00301559 0)
(0.012547 -0.00315772 0)
(0.0140751 -0.00316122 0)
(0.0153345 -0.00290915 0)
(0.0161416 -0.00218202 0)
(0.0162602 -0.000581135 0)
(0.0154385 0.00257182 0)
(0.013572 0.00831404 0)
(0.0108088 0.017859 0)
(2.45126e-05 -0.000191585 0)
(0.00042779 -0.000700521 0)
(0.00116881 -0.00120909 0)
(0.0021833 -0.00168185 0)
(0.00342823 -0.00212439 0)
(0.00486538 -0.00254235 0)
(0.00645686 -0.00293603 0)
(0.00816108 -0.00329851 0)
(0.00992871 -0.00361442 0)
(0.011698 -0.00385633 0)
(0.0133892 -0.00397658 0)
(0.014897 -0.00389146 0)
(0.0160843 -0.00345382 0)
(0.0167794 -0.00240979 0)
(0.0167917 -0.000339546 0)
(0.0159677 0.00339997 0)
(0.0143297 0.00967766 0)
(0.0121618 0.0193785 0)
(3.35299e-05 -0.000279797 0)
(0.000491636 -0.000933709 0)
(0.0013016 -0.00157204 0)
(0.00239179 -0.00216475 0)
(0.0037147 -0.00271848 0)
(0.00522942 -0.0032382 0)
(0.00689378 -0.00372137 0)
(0.00866045 -0.00415586 0)
(0.0104729 -0.00451819 0)
(0.0122613 -0.00476918 0)
(0.013938 -0.00484473 0)
(0.0153939 -0.00463963 0)
(0.0164973 -0.00398189 0)
(0.0171006 -0.00259738 0)
(0.0170675 -7.04067e-05 0)
(0.0163316 0.00417733 0)
(0.0150017 0.0108442 0)
(0.0134094 0.0205553 0)
(4.11304e-05 -0.000387185 0)
(0.000543767 -0.00120688 0)
(0.00140623 -0.00198804 0)
(0.00254957 -0.00271091 0)
(0.00392184 -0.00338412 0)
(0.00547994 -0.00401159 0)
(0.00717842 -0.00458693 0)
(0.00896555 -0.00509147 0)
(0.0107796 -0.00549228 0)
(0.0125458 -0.00573733 0)
(0.0141737 -0.00574631 0)
(0.0155573 -0.00539542 0)
(0.0165787 -0.00449585 0)
(0.0171223 -0.00276821 0)
(0.0171054 0.000178183 0)
(0.0165308 0.00484051 0)
(0.0155577 0.0117604 0)
(0.0145144 0.021365 0)
(4.64763e-05 -0.000502599 0)
(0.000577055 -0.00149156 0)
(0.00146802 -0.00241402 0)
(0.00263488 -0.00326338 0)
(0.00402191 -0.00405122 0)
(0.00558478 -0.00478045 0)
(0.00727626 -0.00544037 0)
(0.00904238 -0.00600539 0)
(0.0108192 -0.0064331 0)
(0.0125309 -0.00665967 0)
(0.0140892 -0.0065914 0)
(0.0153966 -0.0060917 0)
(0.0163534 -0.00496462 0)
(0.0168756 -0.0029385 0)
(0.0169239 0.000341014 0)
(0.0165464 0.00529224 0)
(0.0159225 0.0123325 0)
(0.015355 0.0217534 0)
(5.05677e-05 -0.000629678 0)
(0.000595237 -0.0017992 0)
(0.00149413 -0.00286822 0)
(0.00265936 -0.0038467 0)
(0.00403193 -0.0047502 0)
(0.00556714 -0.00558062 0)
(0.00721743 -0.00632259 0)
(0.00892843 -0.00694318 0)
(0.0106365 -0.00739042 0)
(0.0122679 -0.00758944 0)
(0.0137407 -0.0074354 0)
(0.0149692 -0.00678347 0)
(0.0158749 -0.00543761 0)
(0.0164037 -0.00314254 0)
(0.0165521 0.000413092 0)
(0.016398 0.00557073 0)
(0.0161241 0.0126423 0)
(0.0159996 0.0218174 0)
(5.32442e-05 -0.000786754 0)
(0.00059332 -0.002176 0)
(0.00147049 -0.003417 0)
(0.00259671 -0.00454422 0)
(0.00391079 -0.00557916 0)
(0.0053691 -0.00652273 0)
(0.00692586 -0.00735403 0)
(0.00852906 -0.00803159 0)
(0.0101188 -0.00849304 0)
(0.0116281 -0.00865261 0)
(0.0129859 -0.00839641 0)
(0.0141241 -0.00757631 0)
(0.0149886 -0.00600452 0)
(0.0155556 -0.00345297 0)
(0.0158514 0.000336587 0)
(0.0159717 0.00562515 0)
(0.0160888 0.0126281 0)
(0.0164312 0.0214524 0)
(5.28017e-05 -0.000972221 0)
(0.000557614 -0.00261825 0)
(0.00136552 -0.00405307 0)
(0.00239384 -0.00534417 0)
(0.00358268 -0.00652182 0)
(0.00489202 -0.0075863 0)
(0.00628125 -0.00851086 0)
(0.00770482 -0.00924507 0)
(0.00911153 -0.00971641 0)
(0.0104463 -0.00982994 0)
(0.0116547 -0.0094668 0)
(0.0126899 -0.00848237 0)
(0.0135236 -0.00670629 0)
(0.0141584 -0.00394727 0)
(0.0146413 -6.08371e-06 0)
(0.0150721 0.0053003 0)
(0.0156024 0.0121046 0)
(0.0164171 0.020451 0)
(4.70117e-05 -0.00117488 0)
(0.000470756 -0.00309887 0)
(0.00113947 -0.00473706 0)
(0.001984 -0.0061958 0)
(0.00295259 -0.00751752 0)
(0.00401312 -0.00870298 0)
(0.00513477 -0.00972024 0)
(0.00628376 -0.0105109 0)
(0.00742338 -0.0109944 0)
(0.0085162 -0.0110701 0)
(0.00952861 -0.0106198 0)
(0.0104373 -0.00950983 0)
(0.0112376 -0.00759514 0)
(0.0119518 -0.00472687 0)
(0.0126359 -0.00076477 0)
(0.0133822 0.00440489 0)
(0.0143149 0.0108488 0)
(0.0155761 0.0185664 0)
(3.34206e-05 -0.00136519 0)
(0.000313949 -0.00354775 0)
(0.000749814 -0.00537026 0)
(0.00129599 -0.00697763 0)
(0.00191915 -0.00842665 0)
(0.002601 -0.00972043 0)
(0.0033259 -0.0108241 0)
(0.00407756 -0.0116745 0)
(0.00483932 -0.0121865 0)
(0.0055961 -0.0122594 0)
(0.00633791 -0.0117815 0)
(0.00706442 -0.0106358 0)
(0.00779013 -0.00870661 0)
(0.00854876 -0.00588718 0)
(0.00939583 -0.00208969 0)
(0.0104073 0.00274379 0)
(0.0116769 0.00863111 0)
(0.0133079 0.0155425 0)
(9.82712e-06 -0.00148313 0)
(7.37383e-05 -0.0038242 0)
(0.000167958 -0.00575704 0)
(0.000282759 -0.00745303 0)
(0.0004146 -0.0089813 0)
(0.000565281 -0.0103493 0)
(0.000738802 -0.0115233 0)
(0.000940568 -0.0124401 0)
(0.00117767 -0.0130165 0)
(0.00145989 -0.0131569 0)
(0.00180146 -0.0127606 0)
(0.00222311 -0.0117299 0)
(0.00275419 -0.00997635 0)
(0.00343401 -0.00742847 0)
(0.00431178 -0.00403817 0)
(0.00544478 0.000213499 0)
(0.0068962 0.00531199 0)
(0.00873612 0.0112103 0)
(-2.52062e-05 -0.00142768 0)
(-0.000239849 -0.00369254 0)
(-0.000578108 -0.00556894 0)
(-0.00100702 -0.00722335 0)
(-0.00149393 -0.00872666 0)
(-0.00201465 -0.0100911 0)
(-0.00254496 -0.011289 0)
(-0.00305766 -0.0122651 0)
(-0.00352216 -0.0129452 0)
(-0.00390459 -0.0132452 0)
(-0.00416797 -0.0130791 0)
(-0.00427251 -0.0123666 0)
(-0.00417605 -0.0110404 0)
(-0.00383487 -0.00905148 0)
(-0.00320511 -0.00637395 0)
(-0.00224439 -0.00300719 0)
(-0.000911727 0.00102346 0)
(0.000835348 0.00566639 0)
(-4.93821e-05 -0.00117233 0)
(-0.0004744 -0.00308327 0)
(-0.00114527 -0.00470193 0)
(-0.00200003 -0.00615104 0)
(-0.00298369 -0.00748705 0)
(-0.00406023 -0.00872333 0)
(-0.00519472 -0.00984121 0)
(-0.0063478 -0.010798 0)
(-0.00747494 -0.0115341 0)
(-0.00852715 -0.0119806 0)
(-0.00945216 -0.0120662 0)
(-0.0101962 -0.0117241 0)
(-0.0107059 -0.0108987 0)
(-0.0109306 -0.00955001 0)
(-0.0108242 -0.00765741 0)
(-0.0103475 -0.00522148 0)
(-0.00946636 -0.00226405 0)
(-0.0081484 0.00117297 0)
(-5.85486e-05 -0.000886413 0)
(-0.000579242 -0.0024053 0)
(-0.00141027 -0.0037327 0)
(-0.00247931 -0.00493888 0)
(-0.00372499 -0.00606305 0)
(-0.0051089 -0.00711829 0)
(-0.00659368 -0.00809384 0)
(-0.00813693 -0.00895923 0)
(-0.00969019 -0.00966927 0)
(-0.0111994 -0.0101697 0)
(-0.0126065 -0.0104029 0)
(-0.0138514 -0.010314 0)
(-0.0148746 -0.00985593 0)
(-0.0156202 -0.00899375 0)
(-0.0160381 -0.00770783 0)
(-0.0160871 -0.00599525 0)
(-0.0157328 -0.00387003 0)
(-0.0149464 -0.00136255 0)
(-5.67171e-05 -0.000612079 0)
(-0.00059001 -0.0017492 0)
(-0.00145928 -0.00278315 0)
(-0.00259371 -0.00373501 0)
(-0.00393462 -0.00462864 0)
(-0.00544558 -0.00547639 0)
(-0.00709097 -0.00627412 0)
(-0.00883043 -0.00700218 0)
(-0.0106175 -0.00762855 0)
(-0.0123994 -0.00811282 0)
(-0.0141186 -0.0084107 0)
(-0.0157145 -0.00847861 0)
(-0.017126 -0.00827787 0)
(-0.0182948 -0.00777834 0)
(-0.0191683 -0.00696097 0)
(-0.0197019 -0.00581927 0)
(-0.0198592 -0.00435973 0)
(-0.0196102 -0.00260213 0)
(-4.70444e-05 -0.000384712 0)
(-0.000533217 -0.00119339 0)
(-0.00135295 -0.0019626 0)
(-0.0024436 -0.00267699 0)
(-0.00375325 -0.00334963 0)
(-0.00524886 -0.00399206 0)
(-0.00689833 -0.00460481 0)
(-0.00866601 -0.00517664 0)
(-0.0105108 -0.00568628 0)
(-0.0123855 -0.00610529 0)
(-0.0142373 -0.0064013 0)
(-0.0160096 -0.00654141 0)
(-0.0176442 -0.00649537 0)
(-0.019084 -0.00623842 0)
(-0.0202762 -0.00575333 0)
(-0.0211744 -0.00503171 0)
(-0.0217404 -0.00407455 0)
(-0.0219426 -0.002893 0)
(-3.27632e-05 -0.000215973 0)
(-0.000436541 -0.000763879 0)
(-0.00115341 -0.00131004 0)
(-0.00213093 -0.00181874 0)
(-0.00332455 -0.00229705 0)
(-0.00470453 -0.00275549 0)
(-0.00624293 -0.00319728 0)
(-0.00790987 -0.00361693 0)
(-0.00967124 -0.00400123 0)
(-0.0114874 -0.00433128 0)
(-0.0133131 -0.00458468 0)
(-0.0150986 -0.00473797 0)
(-0.0167917 -0.00476888 0)
(-0.0183397 -0.00465833 0)
(-0.0196926 -0.00439208 0)
(-0.0208051 -0.0039617 0)
(-0.0216385 -0.00336512 0)
(-0.0221612 -0.00260746 0)
(-1.67722e-05 -0.000103275 0)
(-0.000323782 -0.000455803 0)
(-0.000912664 -0.000823077 0)
(-0.00174002 -0.00116382 0)
(-0.00276765 -0.0014826 0)
(-0.0039688 -0.00178848 0)
(-0.00531986 -0.00208564 0)
(-0.00679698 -0.00237203 0)
(-0.00837337 -0.00264004 0)
(-0.0100176 -0.00287784 0)
(-0.011693 -0.0030709 0)
(-0.0133585 -0.00320353 0)
(-0.0149696 -0.00326042 0)
(-0.0164806 -0.00322797 0)
(-0.0178467 -0.00309544 0)
(-0.0190262 -0.00285567 0)
(-0.0199822 -0.0025055 0)
(-0.0206848 -0.00204638 0)
(-1.543e-06 -3.68625e-05 0)
(-0.000213336 -0.000249601 0)
(-0.000669146 -0.00047943 0)
(-0.00133216 -0.000690373 0)
(-0.00216937 -0.00088617 0)
(-0.00315713 -0.00107398 0)
(-0.00427625 -0.00125765 0)
(-0.00550867 -0.00143687 0)
(-0.00683458 -0.00160761 0)
(-0.00823047 -0.00176303 0)
(-0.00966841 -0.0018944 0)
(-0.0111162 -0.00199205 0)
(-0.0125381 -0.00204631 0)
(-0.0138967 -0.00204834 0)
(-0.0151543 -0.00199082 0)
(-0.0162748 -0.00186849 0)
(-0.0172254 -0.0016784 0)
(-0.0179795 -0.00142015 0)
(1.07721e-05 -4.44979e-06 0)
(-0.000118274 -0.000121363 0)
(-0.000448301 -0.000250579 0)
(-0.000947067 -0.000367168 0)
(-0.00158647 -0.000474323 0)
(-0.00234658 -0.000576985 0)
(-0.00321271 -0.000677988 0)
(-0.00417211 -0.000777633 0)
(-0.00521116 -0.000874035 0)
(-0.0063135 -0.000963637 0)
(-0.00745921 -0.00104175 0)
(-0.00862471 -0.00110306 0)
(-0.00978332 -0.00114213 0)
(-0.0109063 -0.00115388 0)
(-0.0119641 -0.00113393 0)
(-0.0129278 -0.00107897 0)
(-0.0137703 -0.000986852 0)
(-0.0144696 -0.000856629 0)
(1.81627e-05 6.14261e-06 0)
(-4.70313e-05 -4.86954e-05 0)
(-0.000264751 -0.000109418 0)
(-0.000607157 -0.000162971 0)
(-0.00105184 -0.000211628 0)
(-0.00158353 -0.000258175 0)
(-0.00219205 -0.000304236 0)
(-0.00286928 -0.000350153 0)
(-0.0036068 -0.000395195 0)
(-0.00439435 -0.00043782 0)
(-0.00521906 -0.000475929 0)
(-0.00606526 -0.000507093 0)
(-0.00691482 -0.000528782 0)
(-0.00774775 -0.000538572 0)
(-0.00854313 -0.000534321 0)
(-0.00927996 -0.000514323 0)
(-0.00993812 -0.000477378 0)
(-0.0105013 -0.000422604 0)
(1.85679e-05 5.72493e-06 0)
(-4.28606e-06 -1.32736e-05 0)
(-0.000124957 -3.3428e-05 0)
(-0.000322337 -5.06548e-05 0)
(-0.000581367 -6.60721e-05 0)
(-0.000892357 -8.07927e-05 0)
(-0.00124945 -9.54587e-05 0)
(-0.00164842 -0.000110248 0)
(-0.00208497 -0.000124971 0)
(-0.0025538 -0.00013916 0)
(-0.00304797 -0.000152157 0)
(-0.00355881 -0.000163182 0)
(-0.00407603 -0.000171412 0)
(-0.00458803 -0.000176037 0)
(-0.00508243 -0.000176324 0)
(-0.0055466 -0.000171662 0)
(-0.00596806 -0.000161567 0)
(-0.00633664 -0.000145475 0)
(9.99466e-06 2.0427e-06 0)
(8.28119e-06 -6.47164e-07 0)
(-2.95904e-05 -2.31595e-06 0)
(-9.4174e-05 -3.64283e-06 0)
(-0.000179701 -4.77911e-06 0)
(-0.000282699 -5.8603e-06 0)
(-0.000401298 -6.95647e-06 0)
(-0.000534297 -8.0925e-06 0)
(-0.000680532 -9.26049e-06 0)
(-0.000838496 -1.04292e-05 0)
(-0.00100613 -1.15498e-05 0)
(-0.00118073 -1.25631e-05 0)
(-0.00135902 -1.34029e-05 0)
(-0.0015372 -1.40022e-05 0)
(-0.00171113 -1.42977e-05 0)
(-0.0018765 -1.42388e-05 0)
(-0.00202889 -1.37437e-05 0)
(-0.00216465 -1.26883e-05 0)
(1.69351e-05 -3.89355e-05 5.3655e-24)
(0.000130555 -9.6518e-05 -7.28525e-24)
(0.000320286 -0.000133046 0)
(0.000557415 -0.000150169 0)
(0.000804722 -0.000152877 0)
(0.00103465 -0.000145294 5.20866e-24)
(0.00122739 -0.000130831 0)
(0.0013686 -0.000112269 0)
(0.00144823 -9.17242e-05 0)
(0.00145966 -7.06872e-05 0)
(0.0013989 -5.00905e-05 5.62253e-24)
(0.00126383 -3.04429e-05 0)
(0.00105341 -1.19144e-05 0)
(0.000767134 5.59097e-06 0)
(0.000404612 2.23546e-05 0)
(-3.48293e-05 3.87763e-05 2.31184e-23)
(-0.000552346 5.53213e-05 0)
(-0.00114966 7.2473e-05 0)
(-0.00182906 9.06898e-05 0)
(-0.00259323 0.000110365 0)
(-0.00344508 0.000131801 0)
(-0.00438749 0.000155196 0)
(-0.00542294 0.000180629 0)
(-0.00655322 0.000208065 6.03643e-23)
(-0.00777905 0.000237346 -6.53263e-23)
(-0.00909978 0.0002682 7.0184e-23)
(-0.010513 0.000300237 7.48566e-23)
(-0.0120145 0.000332958 0)
(-0.0135975 0.000365754 0)
(-0.0152532 0.000397911 -8.67951e-23)
(-0.0169701 0.000428624 -8.97124e-23)
(-0.018734 0.000457006 0)
(-0.0205283 0.000482108 0)
(-0.0223338 0.000502945 -9.3554e-23)
(-0.024129 0.000518525 0)
(-0.0258904 0.000527888 0)
(-0.0275928 0.00053015 8.74324e-23)
(-0.0292101 0.000524537 0)
(-0.0307151 0.00051044 7.64106e-23)
(-0.0320809 0.000487447 1.37216e-22)
(-0.033281 0.000455386 0)
(-0.0342902 0.000414344 0)
(-0.0350851 0.000364671 0)
(-0.0356451 0.000306961 0)
(-0.0359523 0.000242107 0)
(-0.035992 0.000171422 -1.96143e-23)
(-0.0357536 9.59444e-05 -5.46931e-23)
(-0.0352311 1.70918e-05 -9.14797e-23)
(-0.0344228 -6.3418e-05 0)
(-0.0333312 -0.000143928 1.68378e-22)
(-0.0319629 -0.000222863 0)
(-0.0303284 -0.000298756 -2.46344e-22)
(-0.0284417 -0.000370289 -2.84375e-22)
(-0.0263197 -0.000436339 0)
(-0.0239819 -0.000496011 0)
(-0.0214496 -0.000548644 0)
(-0.0187454 -0.00059381 -4.1736e-22)
(-0.0158926 -0.000631291 0)
(-0.0129152 -0.000661041 0)
(-0.00983693 -0.000683142 0)
(-0.00668168 -0.00069773 0)
(-0.00347327 -0.000704842 0)
(-0.000235744 -0.000704167 0)
(0.0030072 -0.000695359 0)
(0.00623151 -0.000678701 0)
(0.0094113 -0.000654694 4.70457e-22)
(0.0125198 -0.000623444 0)
(0.0155289 -0.000584838 0)
(0.018409 -0.000538739 -3.90409e-22)
(0.0211288 -0.000485086 -3.55671e-22)
(0.0236553 -0.000423971 0)
(0.0259545 -0.00035572 2.76936e-22)
(0.0279921 -0.000280967 -2.34118e-22)
(0.0297344 -0.000200705 0)
(0.0311497 -0.00011631 1.44972e-22)
(0.0322097 -2.96022e-05 0)
(0.0328916 5.70442e-05 0)
(0.0331775 0.000141108 -1.3835e-23)
(0.0330604 0.000221485 0)
(0.032543 0.000294397 -6.29317e-23)
(0.0316376 0.00035736 0)
(0.0303679 0.000408522 1.25049e-22)
(0.028769 0.000446412 1.49524e-22)
(0.0268866 0.000470114 1.69313e-22)
(0.0247749 0.000479449 3.68791e-22)
(0.0224952 0.000475008 -3.89829e-22)
(0.0201124 0.000458099 0)
(0.0176919 0.00043063 0)
(0.0152964 0.000394934 0)
(0.012983 0.000353565 -3.97839e-22)
(0.0107998 0.00030907 -3.86134e-22)
(0.00878501 0.000263792 3.71295e-22)
(0.00696535 0.000219708 0)
(0.00535644 0.000178326 -3.36445e-22)
(0.00396357 0.000140661 -3.18201e-22)
(0.00278323 0.000107276 -3.00325e-22)
(0.00180478 7.83855e-05 0)
(0.0010122 5.39928e-05 0)
(0.000385383 3.40121e-05 0)
(-9.86804e-05 1.83497e-05 -2.40366e-22)
(-0.000464986 6.91292e-06 0)
(-0.000739433 -4.64033e-07 0)
(-0.00094754 -4.10629e-06 2.11956e-22)
(-0.00111297 -4.53895e-06 0)
(-0.0012561 -2.47328e-06 0)
(-0.00139288 1.26223e-06 1.97163e-22)
(-0.0015343 5.83223e-06 0)
(-0.00168642 1.04998e-05 0)
(-0.00185101 1.46966e-05 -1.90374e-22)
(-0.00202649 1.80475e-05 -1.88827e-22)
(-0.00220901 2.03577e-05 0)
(-0.00239345 2.15763e-05 1.85764e-22)
(-0.00257423 2.17541e-05 0)
(-0.00274592 2.10042e-05 -1.82032e-22)
(-0.00290363 1.94739e-05 0)
(-0.00304331 1.73242e-05 -1.77199e-22)
(-0.00316183 1.47183e-05 -1.7434e-22)
(-0.00325706 1.18139e-05 0)
(-0.00332785 8.75736e-06 0)
(-0.00337395 5.67883e-06 0)
(-0.00339599 2.70085e-06 0)
(-0.00339524 -4.12764e-08 0)
(-0.00337359 -2.54377e-06 0)
(-0.0033334 -4.72653e-06 0)
(-0.0032773 -6.54979e-06 -1.45107e-22)
(-0.00320806 -8.00205e-06 1.41358e-22)
(-0.00312851 -9.08835e-06 0)
(-0.00304139 -9.82739e-06 0)
(-0.00294928 -1.02486e-05 0)
(-0.00285454 -1.03888e-05 0)
(-0.00275926 -1.02889e-05 2.49631e-22)
(-0.00266521 -9.99158e-06 0)
(-0.00257387 -9.5386e-06 -2.38868e-22)
(-0.00248643 -8.96927e-06 2.34006e-22)
(-0.00240377 -8.31921e-06 0)
(-0.00232654 -7.61964e-06 0)
(-0.00225514 -6.89701e-06 0)
(-0.00218978 -6.17304e-06 -2.17475e-22)
(-0.00213051 -5.46493e-06 -2.1393e-22)
(-0.00207724 -4.78574e-06 0)
(-0.00202979 -4.14491e-06 -2.07341e-22)
(-0.00198788 -3.54873e-06 -2.04243e-22)
(-0.00195119 -3.00094e-06 2.01243e-22)
(-0.00191936 -2.50318e-06 0)
(-0.001892 -2.05546e-06 0)
(-0.00186872 -1.6566e-06 1.92631e-22)
(-0.00184913 -1.30451e-06 0)
(-0.00183285 -9.96511e-07 0)
(-0.00181951 -7.29507e-07 0)
(-0.00180876 -5.00196e-07 0)
(-0.00180027 -3.05173e-07 -1.78677e-22)
(-0.00179375 -1.41019e-07 -1.75857e-22)
(-0.00178891 -4.37571e-09 0)
(-0.0017855 1.07976e-07 -1.70144e-22)
(-0.00178329 1.98702e-07 0)
(-0.00178206 2.69402e-07 0)
(-0.00178165 3.22537e-07 -1.61362e-22)
(-0.00178188 3.60986e-07 0)
(-0.00178264 3.87754e-07 -1.55358e-22)
(-0.00178381 4.059e-07 0)
(-0.00178533 4.18436e-07 0)
(-0.00178714 4.28028e-07 -1.46142e-22)
(-0.00178923 4.3625e-07 0)
(-0.00179163 4.42439e-07 -1.39868e-22)
(-0.00179439 4.52539e-07 0)
(-0.00179759 4.88194e-07 0)
(-0.00180128 5.45755e-07 0)
(-0.00180551 6.21922e-07 1.26966e-22)
(-0.00181024 6.90947e-07 0)
(-0.00181532 7.39227e-07 -1.20253e-22)
(-0.00182038 7.46496e-07 0)
(-0.00182482 6.91916e-07 0)
(-0.00182764 6.24531e-07 0)
(-0.00182745 3.96297e-07 0)
(-0.00182236 -2.03881e-08 0)
(-0.00180983 -6.55952e-07 0)
(-0.00178587 -1.71699e-06 0)
(-0.00174448 -4.16784e-06 1.79896e-22)
(-0.00168817 -4.33918e-06 0)
(-0.00149536 -3.0269e-05 0)
(3.0751e-05 -0.000258785 -1.8709e-23)
(0.000237989 -0.000617146 2.55714e-23)
(0.00054286 -0.00082584 0)
(0.000891711 -0.000901748 -1.70812e-23)
(0.00122162 -0.000868526 0)
(0.00148421 -0.000750518 -5.58524e-24)
(0.00164236 -0.00056975 1.02603e-23)
(0.00166711 -0.000344938 6.64408e-24)
(0.00153619 -9.12205e-05 0)
(0.00123299 0.000179798 -2.36814e-24)
(0.000745429 0.000459721 -6.06063e-24)
(6.47616e-05 0.000742898 0)
(-0.000815352 0.00102606 0)
(-0.00189978 0.00130785 0)
(-0.0031926 0.00158832 0)
(-0.00469765 0.00186849 -2.47622e-23)
(-0.00641879 0.00214985 0)
(-0.00835996 0.00243398 5.74774e-23)
(-0.0105251 0.00272215 0)
(-0.0129177 0.00301499 0)
(-0.0155404 0.0033123 -8.44863e-23)
(-0.0183944 0.00361284 0)
(-0.0214783 0.0039143 1.03738e-22)
(-0.0247881 0.00421327 -6.33544e-23)
(-0.0283158 0.0045053 6.83255e-23)
(-0.0320492 0.00478504 -7.31423e-23)
(-0.0359709 0.00504631 -7.7723e-23)
(-0.0400586 0.00528232 0)
(-0.0442839 0.00548586 0)
(-0.048613 0.00564949 8.91027e-23)
(-0.0530066 0.0057658 -8.05083e-23)
(-0.05742 0.00582767 0)
(-0.0618038 0.00582852 0)
(-0.0661049 0.00576257 9.47346e-23)
(-0.0702668 0.00562513 0)
(-0.0742313 0.00541285 0)
(-0.0779393 0.00512388 -8.78907e-23)
(-0.0813322 0.00475809 0)
(-0.0843532 0.00431713 7.63242e-23)
(-0.0869485 0.0038045 -1.37472e-22)
(-0.0890685 0.0032255 0)
(-0.0906693 0.00258714 0)
(-0.0917132 0.00189784 -1.56111e-22)
(-0.0921695 0.00116723 -1.03345e-22)
(-0.0920149 0.000406129 -4.47471e-23)
(-0.091235 -0.000373718 5.85238e-25)
(-0.0898244 -0.00116038 5.52284e-23)
(-0.0877849 -0.0019417 2.53036e-22)
(-0.0851269 -0.00270603 -2.36339e-22)
(-0.081868 -0.00344254 -1.71541e-22)
(-0.0780328 -0.00414154 0)
(-0.0736517 -0.0047946 2.53106e-22)
(-0.06876 -0.0053948 -2.60916e-22)
(-0.0633972 -0.00593676 0)
(-0.0576058 -0.00641673 0)
(-0.0514306 -0.00683245 0)
(-0.0449173 -0.00718307 4.41551e-22)
(-0.0381122 -0.00746884 0)
(-0.0310613 -0.00769092 -9.6031e-22)
(-0.0238103 -0.00785097 0)
(-0.016404 -0.00795076 -1.04222e-21)
(-0.00888674 -0.00799172 0)
(-0.00130354 -0.00797443 1.07983e-21)
(0.00630074 -0.00789876 0)
(0.0138814 -0.00776449 -1.03175e-21)
(0.0213891 -0.00757121 4.7474e-22)
(0.0287728 -0.00731759 0)
(0.0359783 -0.00700141 8.7178e-22)
(0.0429473 -0.0066201 4.18194e-22)
(0.0496167 -0.00617125 3.79049e-22)
(0.0559187 -0.00565317 0)
(0.0617811 -0.00506542 2.62336e-22)
(0.0671285 -0.0044094 2.46461e-22)
(0.0718833 -0.00368893 0)
(0.0759679 -0.00291063 -1.51821e-22)
(0.0793074 -0.00208434 1.87341e-22)
(0.0818325 -0.00122334 0)
(0.0834832 -0.000344393 1.44531e-23)
(0.0842129 0.000533591 0)
(0.0839902 0.00138859 2.0734e-22)
(0.0828087 0.0021969 0)
(0.0806847 0.00293551 -3.95349e-22)
(0.0776613 0.00358255 -1.56863e-22)
(0.0738095 0.00411862 1.73172e-22)
(0.0692281 0.00452846 3.72247e-22)
(0.0640409 0.00480236 -3.89597e-22)
(0.0583919 0.00493717 0)
(0.0524395 0.0049367 0)
(0.0463478 0.00481157 0)
(0.0402777 0.00457829 1.25811e-21)
(0.0343784 0.00425778 4.23441e-22)
(0.0287793 0.00387351 -4.0998e-22)
(0.0235842 0.00344937 0)
(0.0188683 0.0030079 -3.38283e-22)
(0.0146772 0.00256873 3.58016e-22)
(0.0110292 0.00214787 3.397e-22)
(0.00791805 0.00175754 0)
(0.00531734 0.00140656 0)
(0.00318473 0.00110102 0)
(0.0014659 0.000844717 2.76278e-22)
(9.82585e-05 0.000639378 0)
(-0.000985161 0.000484421 -4.95745e-22)
(-0.00185158 0.000376689 -7.2412e-22)
(-0.00256415 0.000310474 4.66799e-22)
(-0.00317809 0.000277975 0)
(-0.00373774 0.000270141 2.21531e-22)
(-0.00427506 0.000277762 0)
(-0.00480962 0.000292507 4.38456e-22)
(-0.00534998 0.000307634 -2.1509e-22)
(-0.00589591 0.000318321 -2.13634e-22)
(-0.00644093 0.000321627 0)
(-0.00697483 0.000316219 -6.39763e-22)
(-0.0074857 0.000301995 4.21719e-22)
(-0.00796163 0.000279702 2.10294e-22)
(-0.00839176 0.000250616 0)
(-0.00876712 0.000216297 2.04878e-22)
(-0.00908094 0.000178407 6.03381e-22)
(-0.00932891 0.000138592 0)
(-0.00950908 9.83925e-05 3.87976e-22)
(-0.00962182 5.91857e-05 3.80355e-22)
(-0.00966951 2.21514e-05 3.72356e-22)
(-0.00965626 -1.17233e-05 0)
(-0.00958755 -4.18182e-05 0)
(-0.0094699 -6.76464e-05 0)
(-0.00931048 -8.89677e-05 -1.69801e-22)
(-0.00911677 -0.000105752 -1.64609e-22)
(-0.00889626 -0.000118144 0)
(-0.00865619 -0.000126426 -3.145e-22)
(-0.00840334 -0.000130981 -3.07068e-22)
(-0.00814388 -0.000132262 0)
(-0.00788324 -0.000130757 -2.9204e-22)
(-0.00762607 -0.000126961 -5.74115e-22)
(-0.00737626 -0.000121355 2.79972e-22)
(-0.00713687 -0.00011439 2.76781e-22)
(-0.00691029 -0.000106472 0)
(-0.00669818 -9.79574e-05 0)
(-0.00650165 -8.91512e-05 0)
(-0.0063213 -8.0304e-05 2.56041e-22)
(-0.00615726 -7.16168e-05 -2.53517e-22)
(-0.00600936 -6.32443e-05 -4.97911e-22)
(-0.00587712 -5.53005e-05 2.44718e-22)
(-0.00575986 -4.78643e-05 -2.42237e-22)
(-0.00565675 -4.0985e-05 -2.37897e-22)
(-0.00556684 -3.46879e-05 0)
(-0.00548913 -2.89792e-05 0)
(-0.00542261 -2.38505e-05 2.28753e-22)
(-0.00536622 -1.92823e-05 0)
(-0.00531898 -1.52473e-05 0)
(-0.00527988 -1.17129e-05 -4.37878e-22)
(-0.00524801 -8.64349e-06 0)
(-0.00522248 -6.00133e-06 -2.12626e-22)
(-0.00520247 -3.74836e-06 2.09254e-22)
(-0.00518722 -1.84673e-06 0)
(-0.00517604 -2.5948e-07 -2.02781e-22)
(-0.0051683 1.0488e-06 0)
(-0.00516343 2.11139e-06 0)
(-0.00516092 2.96164e-06 1.92663e-22)
(-0.00516035 3.633e-06 -3.78407e-22)
(-0.00516134 4.15916e-06 1.85744e-22)
(-0.00516359 4.57445e-06 0)
(-0.00516689 4.91398e-06 0)
(-0.00517109 5.21305e-06 -1.74999e-22)
(-0.00517613 5.50518e-06 0)
(-0.00518204 5.81868e-06 -1.67692e-22)
(-0.00518888 6.17974e-06 0)
(-0.00519679 6.61816e-06 0)
(-0.00520588 7.11285e-06 0)
(-0.00521614 7.61723e-06 -1.52713e-22)
(-0.00522736 7.99795e-06 0)
(-0.00523895 8.09247e-06 1.44831e-22)
(-0.00524979 7.67407e-06 0)
(-0.00525802 6.46981e-06 0)
(-0.00526087 4.20491e-06 -2.6458e-22)
(-0.00525448 3.36556e-07 2.55797e-22)
(-0.00523361 -5.63303e-06 0)
(-0.00519143 -1.44133e-05 0)
(-0.00511807 -2.74202e-05 0)
(-0.00500037 -4.75638e-05 -6.55279e-22)
(-0.00483737 -8.01293e-05 0)
(-0.0044502 -0.000159059 3.96822e-22)
(2.81669e-05 -0.000522114 -4.9202e-24)
(0.000201545 -0.00117369 -4.1534e-23)
(0.000420525 -0.00149097 0)
(0.000623216 -0.0015301 3.92947e-23)
(0.000742455 -0.00134406 0)
(0.000726316 -0.000981059 0)
(0.000533861 -0.000483377 4.84408e-24)
(0.000131865 0.000113077 -6.65801e-24)
(-0.000506569 0.000778973 -7.68291e-24)
(-0.00140312 0.00149111 2.36432e-24)
(-0.00257507 0.00223199 0)
(-0.00403623 0.00298922 0)
(-0.00579776 0.00375475 -1.25542e-23)
(-0.00786876 0.00452406 -3.72058e-23)
(-0.0102569 0.00529523 5.00724e-23)
(-0.0129684 0.00606802 0)
(-0.0160085 0.00684294 7.8132e-23)
(-0.0193811 0.00762035 -5.61454e-23)
(-0.023088 0.00839967 0)
(-0.0271288 0.00917869 1.26016e-22)
(-0.0315 0.00995315 8.17666e-23)
(-0.0361938 0.0107164 -1.61447e-22)
(-0.0411975 0.0114593 -9.97328e-23)
(-0.0464927 0.0121704 0)
(-0.0520543 0.0128361 2.17931e-22)
(-0.0578501 0.0134411 2.36945e-22)
(-0.0638405 0.0139688 0)
(-0.0699785 0.0144022 2.73702e-22)
(-0.0762099 0.0147238 0)
(-0.0824736 0.0149171 3.06488e-22)
(-0.088703 0.0149667 1.61697e-22)
(-0.0948265 0.0148591 0)
(-0.100769 0.0145835 0)
(-0.106454 0.0141317 0)
(-0.111804 0.0134995 0)
(-0.116744 0.0126861 0)
(-0.1212 0.011695 0)
(-0.125103 0.0105333 3.27541e-22)
(-0.128393 0.00921249 -4.52875e-22)
(-0.131012 0.0077473 0)
(-0.132913 0.00615592 0)
(-0.134059 0.00445923 0)
(-0.13442 0.00268016 -3.41589e-23)
(-0.133976 0.00084335 9.72374e-23)
(-0.132717 -0.00102523 1.21179e-22)
(-0.130647 -0.00289906 -1.72923e-24)
(-0.127773 -0.00475239 4.42405e-23)
(-0.124113 -0.00656109 -1.51418e-22)
(-0.119695 -0.00830286 3.92904e-23)
(-0.11455 -0.00995772 -2.58397e-22)
(-0.108717 -0.0115084 0)
(-0.102241 -0.0129405 -4.11474e-22)
(-0.0951692 -0.0142431 3.97492e-23)
(-0.0875531 -0.0154082 0)
(-0.0794455 -0.0164311 0)
(-0.0709002 -0.0173099 7.07647e-22)
(-0.061971 -0.0180452 0)
(-0.0527112 -0.0186398 0)
(-0.0431728 -0.0190976 -8.46712e-22)
(-0.0334062 -0.0194235 -1.8698e-21)
(-0.0234607 -0.0196223 1.01585e-21)
(-0.0133839 -0.019698 0)
(-0.00322408 -0.0196532 -1.06168e-21)
(0.00697058 -0.0194887 0)
(0.0171549 -0.0192031 -9.27112e-22)
(0.0272754 -0.0187937 -9.64695e-22)
(0.0372766 -0.0182558 1.73768e-21)
(0.0470992 -0.0175833 7.66919e-22)
(0.056678 -0.0167687 0)
(0.0659413 -0.0158045 -1.32238e-21)
(0.0748103 -0.0146842 0)
(0.083199 -0.013403 -1.52474e-21)
(0.0910149 -0.0119593 -8.18456e-22)
(0.0981596 -0.010356 -6.41811e-22)
(0.104531 -0.00860154 4.6521e-22)
(0.110023 -0.00671059 -4.69733e-22)
(0.114535 -0.00470524 0)
(0.117967 -0.00261523 0)
(0.12023 -0.000478773 -1.86304e-22)
(0.121249 0.00165854 -4.55745e-22)
(0.120967 0.00374448 0)
(0.119358 0.00572357 2.49741e-22)
(0.116428 0.00753897 0)
(0.112217 0.00913536 -1.01971e-21)
(0.10681 0.0104627 1.85697e-23)
(0.10033 0.0114805 -9.97469e-24)
(0.0929429 0.0121615 7.83271e-22)
(0.0848493 0.0124948 0)
(0.0762756 0.0124875 -7.79406e-22)
(0.0674624 0.0121649 -2.09846e-23)
(0.0586503 0.0115681 0)
(0.0500649 0.0107501 0)