/*--------------------------------*- C++ -*----------------------------------*\
  =========                 |
  \\      /  F ield         | OpenFOAM: The Open Source CFD Toolbox
   \\    /   O peration     | Website:  https://openfoam.org
    \\  /    A nd           | Version:  8
     \\/     M anipulation  |
\*---------------------------------------------------------------------------*/
FoamFile
{
    version     2.0;
    format      ascii;
    class       volScalarField;
    location    "0.46";
    object      p;
}
// * * * * * * * * * * * * * * * * * * * * * * * * * * * * * * * * * * * * * //

dimensions      [0 2 -2 0 0 0 0];

internalField   nonuniform List<scalar> 
12225
(
-0.0166503
-0.0166032
-0.016549
-0.016497
-0.0164543
-0.0164233
-0.0164073
-0.0164108
-0.0164396
-0.0165007
-0.0166022
-0.0167536
-0.0169687
-0.0172731
-0.0177199
-0.0184248
-0.0197331
-0.0231939
-0.016649
-0.0166065
-0.0165566
-0.0165084
-0.0164694
-0.0164425
-0.016431
-0.0164394
-0.0164733
-0.0165394
-0.0166453
-0.0168002
-0.0170173
-0.0173202
-0.0177542
-0.01841
-0.0194785
-0.0217752
-0.0166496
-0.0166112
-0.016566
-0.0165223
-0.0164877
-0.0164655
-0.0164593
-0.0164733
-0.016513
-0.0165844
-0.0166946
-0.016852
-0.0170683
-0.0173631
-0.0177699
-0.0183451
-0.019132
-0.0205212
-0.0166528
-0.016617
-0.0165758
-0.0165362
-0.0165059
-0.0164882
-0.0164868
-0.016506
-0.0165507
-0.0166264
-0.0167393
-0.0168964
-0.0171072
-0.0173853
-0.0177503
-0.018227
-0.0187852
-0.0196075
-0.0166584
-0.0166241
-0.0165861
-0.0165503
-0.0165239
-0.0165105
-0.0165136
-0.0165374
-0.0165863
-0.0166651
-0.016779
-0.0169334
-0.0171343
-0.017389
-0.0177039
-0.0180798
-0.0184612
-0.0189243
-0.0166664
-0.0166325
-0.016597
-0.0165647
-0.0165421
-0.0165327
-0.0165401
-0.0165679
-0.0166203
-0.0167013
-0.0168148
-0.0169643
-0.0171523
-0.0173796
-0.0176421
-0.0179249
-0.0181696
-0.0184006
-0.0166765
-0.0166421
-0.0166086
-0.0165794
-0.0165603
-0.0165547
-0.016566
-0.0165976
-0.0166529
-0.0167352
-0.0168472
-0.0169902
-0.0171635
-0.0173623
-0.0175749
-0.0177782
-0.0179208
-0.0180082
-0.0166884
-0.0166529
-0.0166207
-0.0165943
-0.0165785
-0.0165765
-0.0165914
-0.0166262
-0.0166839
-0.0167669
-0.0168766
-0.0170125
-0.0171706
-0.0173423
-0.0175113
-0.0176516
-0.0177232
-0.0177293
-0.0167018
-0.0166647
-0.0166332
-0.0166093
-0.0165965
-0.0165978
-0.016616
-0.0166538
-0.0167135
-0.0167968
-0.0169041
-0.017033
-0.0171772
-0.0173253
-0.0174592
-0.0175541
-0.0175815
-0.0175481
-0.0167159
-0.0166771
-0.0166459
-0.0166242
-0.0166142
-0.0166186
-0.0166399
-0.0166803
-0.0167419
-0.0168257
-0.0169309
-0.0170538
-0.0171867
-0.0173167
-0.0174256
-0.0174919
-0.0174971
-0.0174518
-0.0167303
-0.0166896
-0.0166585
-0.0166387
-0.0166313
-0.0166387
-0.0166629
-0.016706
-0.0167696
-0.0168541
-0.0169581
-0.0170771
-0.0172023
-0.0173206
-0.017415
-0.0174678
-0.0174682
-0.0174291
-0.016743
-0.0167006
-0.0166696
-0.0166515
-0.0166464
-0.0166563
-0.0166831
-0.0167287
-0.0167943
-0.0168802
-0.0169844
-0.0171021
-0.0172243
-0.0173382
-0.0174284
-0.0174805
-0.0174879
-0.0174649
-0.0167542
-0.0167113
-0.0166803
-0.0166638
-0.016661
-0.0166734
-0.0167029
-0.0167511
-0.0168191
-0.0169071
-0.0170129
-0.0171316
-0.0172543
-0.0173691
-0.0174624
-0.0175224
-0.0175456
-0.0175436
-0.0167644
-0.016722
-0.0166914
-0.0166768
-0.0166767
-0.016692
-0.0167246
-0.0167759
-0.0168472
-0.0169386
-0.0170481
-0.0171708
-0.0172987
-0.0174209
-0.0175256
-0.0176034
-0.0176517
-0.017679
-0.0167714
-0.0167309
-0.0167017
-0.0166897
-0.0166926
-0.0167113
-0.0167473
-0.0168024
-0.016878
-0.0169744
-0.0170902
-0.017221
-0.0173598
-0.0174969
-0.0176221
-0.0177272
-0.0178093
-0.0178724
-0.0167712
-0.0167352
-0.0167094
-0.0167009
-0.0167074
-0.0167296
-0.0167692
-0.0168283
-0.0169088
-0.0170116
-0.017136
-0.0172787
-0.0174335
-0.0175922
-0.0177455
-0.0178851
-0.0180062
-0.0181085
-0.0167581
-0.0167302
-0.0167111
-0.0167076
-0.0167184
-0.016744
-0.0167866
-0.0168488
-0.0169333
-0.017042
-0.0171751
-0.0173302
-0.0175025
-0.0176846
-0.0178675
-0.018042
-0.0182002
-0.0183371
-0.0167246
-0.0167101
-0.0167021
-0.0167055
-0.0167203
-0.0167479
-0.0167909
-0.0168526
-0.0169366
-0.0170455
-0.0171808
-0.0173412
-0.0175229
-0.017719
-0.0179207
-0.0181177
-0.0182989
-0.0184549
-0.0166652
-0.0166698
-0.0166767
-0.0166873
-0.0167038
-0.0167286
-0.0167648
-0.0168159
-0.016886
-0.0169784
-0.0170953
-0.0172366
-0.0173995
-0.0175781
-0.0177643
-0.0179472
-0.0181142
-0.0182532
-0.0166083
-0.0166315
-0.0166517
-0.0166674
-0.0166828
-0.0167011
-0.0167248
-0.016757
-0.0168008
-0.0168593
-0.0169345
-0.0170265
-0.0171337
-0.0172516
-0.0173736
-0.0174907
-0.017591
-0.0176619
-0.0165799
-0.0166158
-0.016645
-0.0166642
-0.0166791
-0.0166928
-0.0167072
-0.0167245
-0.0167468
-0.016776
-0.0168134
-0.016859
-0.0169111
-0.0169663
-0.0170194
-0.0170632
-0.0170876
-0.0170815
-0.0165754
-0.016619
-0.0166538
-0.0166759
-0.0166914
-0.0167028
-0.0167113
-0.0167181
-0.016724
-0.0167298
-0.0167356
-0.0167407
-0.0167434
-0.0167406
-0.0167282
-0.0167007
-0.01665
-0.016567
-0.0165889
-0.0166358
-0.0166738
-0.0166989
-0.0167164
-0.0167281
-0.0167343
-0.0167355
-0.0167313
-0.0167213
-0.0167047
-0.0166798
-0.0166446
-0.0165959
-0.0165302
-0.0164433
-0.0163289
-0.0161802
-0.0166126
-0.0166599
-0.0166999
-0.0167285
-0.0167494
-0.0167634
-0.0167704
-0.0167699
-0.0167612
-0.0167427
-0.0167126
-0.0166685
-0.0166078
-0.016527
-0.0164229
-0.0162916
-0.0161286
-0.0159288
-0.0166396
-0.0166859
-0.0167278
-0.0167606
-0.0167859
-0.0168036
-0.0168133
-0.0168143
-0.0168051
-0.0167837
-0.0167474
-0.0166933
-0.0166178
-0.0165174
-0.0163885
-0.0162275
-0.0160308
-0.0157946
-0.0166646
-0.01671
-0.0167546
-0.0167924
-0.0168226
-0.0168448
-0.0168584
-0.0168627
-0.0168558
-0.0168354
-0.0167982
-0.0167407
-0.0166589
-0.0165486
-0.016406
-0.0162273
-0.0160092
-0.0157492
-0.0166844
-0.0167305
-0.0167792
-0.0168225
-0.0168578
-0.0168846
-0.0169027
-0.0169112
-0.0169084
-0.0168915
-0.016857
-0.0168008
-0.0167184
-0.0166052
-0.0164569
-0.0162695
-0.0160397
-0.0157653
-0.0166976
-0.0167469
-0.0168014
-0.0168506
-0.016891
-0.0169224
-0.016945
-0.0169583
-0.0169605
-0.0169488
-0.0169193
-0.0168676
-0.0167887
-0.0166775
-0.0165293
-0.0163397
-0.0161049
-0.015823
-0.0167036
-0.0167594
-0.0168213
-0.0168767
-0.0169219
-0.0169577
-0.0169848
-0.017003
-0.0170109
-0.0170053
-0.0169825
-0.0169374
-0.0168647
-0.016759
-0.0166148
-0.0164274
-0.0161928
-0.0159085
-0.0167042
-0.0167676
-0.0168364
-0.0168968
-0.0169458
-0.0169849
-0.0170155
-0.0170378
-0.0170504
-0.0170503
-0.0170334
-0.0169945
-0.0169281
-0.0168281
-0.016689
-0.0165054
-0.016273
-0.0159892
0.00132398
0.00134424
0.00134378
0.00130908
0.00123983
0.00113757
0.00100363
0.000839304
0.000645807
0.000424038
0.000174471
-0.00010301
-0.000409021
-0.000744619
-0.00111118
-0.00151022
-0.00194311
-0.00241087
-0.00291383
-0.00345142
-0.00402184
-0.00462178
-0.0052462
-0.005888
-0.00653779
-0.00718364
-0.00781096
-0.00840242
-0.00893806
-0.00939552
-0.00975054
-0.00997758
-0.0100507
-0.00994443
-0.00963515
-0.00910202
-0.00832822
-0.00730207
-0.00601786
-0.00447664
-0.00268671
-0.000663843
0.00156969
0.003987
0.00654984
0.00921796
0.0119468
0.0146886
0.0173947
0.0200163
0.022506
0.0248191
0.0269143
0.0287547
0.030308
0.0315472
0.0324503
0.0330005
0.0331861
0.0330009
0.0324435
0.0315172
0.0302311
0.0286005
0.0266464
0.0243955
0.0218808
0.0191412
0.0162209
0.0131691
0.0100386
0.00688418
0.00376147
0.000724097
-0.00217557
-0.0048933
-0.00739024
-0.00963547
-0.0116072
-0.0132933
-0.014691
-0.0158063
-0.0166529
-0.0172511
-0.0176254
-0.0178034
-0.0178142
-0.0176865
-0.0174478
-0.0171239
-0.0167379
-0.0163107
-0.0158603
-0.0154024
-0.0149504
-0.0145155
-0.0141064
-0.0137299
-0.0133903
-0.01309
-0.0128295
-0.0126067
-0.0124188
-0.0122617
-0.0121305
-0.0120198
-0.0119241
-0.0118384
-0.0117577
-0.0116777
-0.0115948
-0.0115061
-0.0114094
-0.0113033
-0.0111868
-0.0110599
-0.0109229
-0.0107764
-0.0106217
-0.0104601
-0.0102931
-0.0101222
-0.00994904
-0.00977489
-0.00960139
-0.00942966
-0.00926077
-0.0090956
-0.00893487
-0.00877911
-0.00862871
-0.0084839
-0.0083448
-0.00821141
-0.00808363
-0.00796129
-0.00784418
-0.007732
-0.00762447
-0.00752124
-0.00742198
-0.00732634
-0.00723397
-0.00714455
-0.00705773
-0.00697319
-0.00689065
-0.00680979
-0.00673037
-0.00665211
-0.00657478
-0.00649816
-0.00642205
-0.00634626
-0.00627063
-0.00619498
-0.0061192
-0.00604314
-0.00596669
-0.00588973
-0.00581218
-0.00573393
-0.0056549
-0.00557499
-0.00549411
-0.00541215
-0.00532896
-0.00524432
-0.00515791
-0.00506925
-0.00497764
-0.00488207
-0.00478121
-0.00467373
-0.00455814
-0.00443349
-0.00429926
-0.00415939
-0.00401833
-0.00383271
0.00135853
0.00137646
0.0013744
0.00134081
0.00127698
0.00118514
0.00106669
0.000922698
0.000754076
0.000561427
0.000344914
0.000104273
-0.000161248
-0.000452814
-0.000771887
-0.00112008
-0.00149897
-0.00190991
-0.00235382
-0.00283093
-0.00334056
-0.00388092
-0.00444876
-0.00503912
-0.00564495
-0.00625684
-0.00686268
-0.00744749
-0.0079933
-0.00847928
-0.00888201
-0.00917599
-0.00933447
-0.00933039
-0.00913761
-0.00873218
-0.00809375
-0.00720681
-0.00606199
-0.00465713
-0.00299805
-0.00109772
0.00102786
0.00334679
0.00582601
0.00842387
0.0110945
0.0137893
0.0164582
0.0190515
0.0215206
0.0238198
0.025907
0.0277444
0.0292995
0.0305445
0.0314573
0.0320209
0.0322231
0.0320567
0.03152
0.0306166
0.0293563
0.0277549
0.0258332
0.0236184
0.0211438
0.0184486
0.0155777
0.0125807
0.00951073
0.00642301
0.00337312
0.000415385
-0.00240144
-0.00503211
-0.00744089
-0.0095993
-0.0114879
-0.0130971
-0.0144263
-0.0154838
-0.0162846
-0.0168498
-0.0172041
-0.0173744
-0.0173885
-0.0172735
-0.0170549
-0.0167566
-0.0163996
-0.0160028
-0.015583
-0.0151545
-0.0147297
-0.0143193
-0.0139317
-0.0135736
-0.0132494
-0.0129618
-0.0127114
-0.0124969
-0.0123158
-0.0121643
-0.012038
-0.0119318
-0.0118407
-0.0117595
-0.0116836
-0.0116088
-0.0115313
-0.0114483
-0.0113575
-0.0112573
-0.0111468
-0.0110257
-0.0108942
-0.010753
-0.0106033
-0.0104462
-0.0102832
-0.0101159
-0.00994578
-0.0097745
-0.00960328
-0.00943344
-0.00926607
-0.00910209
-0.00894226
-0.00878714
-0.00863715
-0.00849256
-0.00835353
-0.00822006
-0.0080921
-0.0079695
-0.00785205
-0.00773949
-0.00763154
-0.00752787
-0.00742816
-0.00733207
-0.00723925
-0.00714938
-0.00706213
-0.00697719
-0.00689425
-0.00681303
-0.00673326
-0.00665468
-0.00657705
-0.00650015
-0.00642379
-0.00634777
-0.00627193
-0.0061961
-0.00612014
-0.00604393
-0.00596734
-0.00589026
-0.0058126
-0.00573426
-0.00565514
-0.00557514
-0.00549418
-0.00541213
-0.00532883
-0.00524406
-0.00515749
-0.00506864
-0.00497681
-0.00488109
-0.00478039
-0.00467343
-0.00455912
-0.0044365
-0.00430547
-0.00417058
-0.0040352
-0.00385857
0.0015419
0.00154521
0.0015294
0.00148714
0.0014205
0.00133182
0.00122252
0.00109349
0.000945398
0.000778556
0.000592763
0.000387268
0.000160768
-8.85459e-05
-0.000362911
-0.000664879
-0.000997174
-0.00136254
-0.00176359
-0.00220258
-0.00268125
-0.00320048
-0.0037599
-0.00435746
-0.00498884
-0.00564688
-0.00632098
-0.0069967
-0.00765542
-0.00827442
-0.00882715
-0.00928397
-0.00961318
-0.00978236
-0.00975996
-0.00951701
-0.00902873
-0.00827621
-0.00724798
-0.0059409
-0.00435878
-0.00251149
-0.000422711
0.00187628
0.00434741
0.00694713
0.00962754
0.012338
0.0150265
0.0176418
0.0201341
0.0224569
0.0245677
0.0264286
0.0280071
0.0292759
0.0302134
0.0308028
0.0310323
0.0308948
0.0303889
0.0295173
0.0282887
0.0267183
0.0248264
0.0226397
0.0201916
0.0175217
0.0146757
0.0117043
0.00866231
0.00560665
0.00259467
-0.000318074
-0.00307991
-0.00564547
-0.0079783
-0.0100518
-0.0118486
-0.0133614
-0.0145929
-0.0155548
-0.016266
-0.0167505
-0.0170358
-0.0171505
-0.017123
-0.0169801
-0.0167463
-0.0164435
-0.0160909
-0.015705
-0.0153003
-0.0148894
-0.0144833
-0.0140915
-0.0137216
-0.0133799
-0.0130708
-0.0127967
-0.0125585
-0.0123551
-0.012184
-0.0120418
-0.0119241
-0.0118263
-0.0117433
-0.0116701
-0.011602
-0.0115349
-0.0114652
-0.0113896
-0.011306
-0.0112128
-0.0111088
-0.0109938
-0.010868
-0.010732
-0.0105869
-0.010434
-0.0102747
-0.0101106
-0.00994322
-0.00977423
-0.00960496
-0.00943672
-0.00927064
-0.00910767
-0.00894861
-0.00879404
-0.00864442
-0.00850006
-0.0083611
-0.0082276
-0.00809952
-0.00797673
-0.00785903
-0.00774617
-0.00763789
-0.00753387
-0.00743378
-0.00733731
-0.00724411
-0.00715387
-0.00706625
-0.00698095
-0.00689767
-0.00681613
-0.00673604
-0.00665717
-0.00657927
-0.00650212
-0.00642553
-0.00634929
-0.00627325
-0.00619724
-0.00612112
-0.00604476
-0.00596804
-0.00589085
-0.00581308
-0.00573465
-0.00565544
-0.00557537
-0.00549433
-0.00541219
-0.0053288
-0.00524393
-0.00515725
-0.0050683
-0.00497644
-0.00488084
-0.0047805
-0.00467436
-0.00456151
-0.00444131
-0.00431378
-0.00418389
-0.00405511
-0.00388575
0.00187283
0.00184708
0.00180369
0.00174288
0.00166589
0.0015739
0.00146773
0.001348
0.00121483
0.00106781
0.000905884
0.000727283
0.000529434
0.00030896
6.17252e-05
-0.000217094
-0.000532891
-0.000891482
-0.00129891
-0.00176119
-0.00228387
-0.00287151
-0.00352694
-0.0042504
-0.00503851
-0.00588342
-0.00677194
-0.0076851
-0.00859799
-0.00948021
-0.0102967
-0.0110093
-0.0115779
-0.0119631
-0.0121277
-0.0120389
-0.01167
-0.0110019
-0.0100245
-0.00873585
-0.00714085
-0.00525709
-0.00311546
-0.000750368
0.00179687
0.00447923
0.00724559
0.0100425
0.0128156
0.0155118
0.0180802
0.0204736
0.0226494
0.0245702
0.0262043
0.0275254
0.0285127
0.0291505
0.0294275
0.0293367
0.0288774
0.0280517
0.0268657
0.0253331
0.0234731
0.0213114
0.0188805
0.0162203
0.013377
0.010403
0.00735517
0.00429333
0.00127806
-0.00163164
-0.00438076
-0.00691961
-0.00920815
-0.0112185
-0.0129333
-0.0143463
-0.0154625
-0.0162975
-0.0168748
-0.0172242
-0.0173785
-0.0173715
-0.0172355
-0.0170001
-0.0166911
-0.01633
-0.0159347
-0.0155198
-0.0150975
-0.0146778
-0.0142697
-0.0138806
-0.0135169
-0.0131837
-0.0128846
-0.0126216
-0.012395
-0.0122037
-0.0120448
-0.0119148
-0.0118092
-0.0117232
-0.0116515
-0.0115893
-0.0115316
-0.0114743
-0.0114135
-0.0113462
-0.0112701
-0.0111834
-0.0110852
-0.0109752
-0.0108537
-0.0107213
-0.0105792
-0.0104287
-0.0102714
-0.0101089
-0.00994288
-0.00977492
-0.00960649
-0.0094389
-0.00927334
-0.00911077
-0.00895201
-0.00879767
-0.00864821
-0.00850395
-0.00836504
-0.00823156
-0.00810345
-0.0079806
-0.00786281
-0.00774985
-0.00764143
-0.00753726
-0.00743702
-0.00734038
-0.007247
-0.00715658
-0.00706878
-0.0069833
-0.00689984
-0.00681812
-0.00673787
-0.00665883
-0.00658077
-0.00650348
-0.00642674
-0.00635038
-0.00627422
-0.0061981
-0.00612188
-0.00604542
-0.00596862
-0.00589135
-0.00581352
-0.00573502
-0.00565576
-0.00557564
-0.00549456
-0.00541238
-0.00532896
-0.00524406
-0.00515738
-0.00506848
-0.00497678
-0.00488153
-0.00478184
-0.00467679
-0.00456563
-0.00444785
-0.00432357
-0.00419755
-0.00407272
-0.00391297
0.00230654
0.00224018
0.00215794
0.00207073
0.00197773
0.00187779
0.00177042
0.00165502
0.00153048
0.00139496
0.00124576
0.00107915
0.00089018
0.000672617
0.000418952
0.000120458
-0.000232644
-0.000650917
-0.00114529
-0.00172641
-0.00240383
-0.00318486
-0.00407332
-0.00506815
-0.00616215
-0.00734101
-0.00858277
-0.00985793
-0.0111301
-0.0123574
-0.0134941
-0.0144931
-0.0153076
-0.0158939
-0.0162129
-0.0162321
-0.0159269
-0.0152815
-0.0142891
-0.0129518
-0.0112838
-0.00931028
-0.00706271
-0.00457956
-0.00190618
0.000906741
0.00380477
0.00673153
0.00963041
0.0124463
0.0151272
0.0176253
0.0198982
0.0219091
0.0236272
0.0250277
0.0260911
0.0268026
0.0271519
0.0271319
0.0267407
0.0259803
0.024855
0.0233763
0.0215616
0.0194349
0.0170275
0.014379
0.0115361
0.00855249
0.00548751
0.00240408
-0.000633323
-0.0035613
-0.00632021
-0.00885664
-0.0111248
-0.0130912
-0.0147365
-0.0160536
-0.017048
-0.0177374
-0.0181498
-0.018321
-0.0182911
-0.0181013
-0.0177915
-0.017397
-0.016948
-0.0164686
-0.015977
-0.015487
-0.0150085
-0.0145488
-0.014114
-0.0137089
-0.0133375
-0.013003
-0.0127074
-0.0124516
-0.0122349
-0.0120553
-0.0119096
-0.0117935
-0.011702
-0.0116301
-0.0115721
-0.0115229
-0.0114773
-0.0114309
-0.0113798
-0.0113209
-0.0112519
-0.011171
-0.0110775
-0.0109711
-0.0108522
-0.0107217
-0.0105808
-0.010431
-0.010274
-0.0101116
-0.00994538
-0.00977718
-0.00960845
-0.00944057
-0.00927474
-0.00911194
-0.008953
-0.00879853
-0.00864899
-0.00850469
-0.00836578
-0.00823231
-0.00810424
-0.00798143
-0.00786369
-0.00775077
-0.0076424
-0.00753826
-0.00743804
-0.00734142
-0.00724805
-0.00715762
-0.00706981
-0.00698431
-0.00690082
-0.00681906
-0.00673877
-0.00665969
-0.00658159
-0.00650424
-0.00642746
-0.00635105
-0.00627483
-0.00619867
-0.0061224
-0.00604591
-0.00596906
-0.00589176
-0.0058139
-0.00573537
-0.00565609
-0.00557595
-0.00549486
-0.00541269
-0.00532927
-0.00524441
-0.00515782
-0.00506911
-0.00497775
-0.00488309
-0.00478433
-0.00468068
-0.00457146
-0.00445625
-0.00433518
-0.00421222
-0.00408952
-0.00394199
0.00278543
0.00267072
0.00254239
0.00242407
0.00231172
0.00220036
0.00208705
0.00196909
0.0018431
0.00170482
0.00154875
0.00136791
0.00115358
0.000895145
0.000580131
0.000194374
-0.00027758
-0.000851824
-0.00154414
-0.00236873
-0.00333667
-0.00445416
-0.00572083
-0.00712825
-0.00865896
-0.0102861
-0.0119741
-0.0136796
-0.0153535
-0.0169434
-0.0183957
-0.0196584
-0.0206826
-0.0214251
-0.0218493
-0.0219262
-0.0216355
-0.0209657
-0.0199151
-0.0184932
-0.0167191
-0.0146199
-0.0122304
-0.009593
-0.006757
-0.00377672
-0.00071004
0.00238349
0.00544454
0.00841578
0.0112436
0.0138794
0.0162806
0.018411
0.0202411
0.0217473
0.0229118
0.0237211
0.0241658
0.024239
0.0239376
0.0232629
0.0222176
0.0208101
0.0190558
0.0169764
0.014602
0.0119713
0.00913148
0.00613775
0.00305178
-6.01177e-05
-0.00312934
-0.00608775
-0.00887054
-0.0114192
-0.0136829
-0.0156226
-0.0172128
-0.0184438
-0.0193197
-0.0198584
-0.0200905
-0.0200568
-0.0198046
-0.0193839
-0.0188438
-0.0182289
-0.017577
-0.0169177
-0.0162727
-0.0156565
-0.015078
-0.0145421
-0.0140515
-0.0136078
-0.0132116
-0.0128632
-0.0125623
-0.0123076
-0.012097
-0.0119271
-0.0117936
-0.0116913
-0.0116144
-0.0115573
-0.0115138
-0.0114781
-0.011445
-0.0114096
-0.0113679
-0.0113167
-0.0112537
-0.0111773
-0.0110868
-0.0109821
-0.0108639
-0.0107333
-0.0105916
-0.0104407
-0.0102823
-0.0101183
-0.00995056
-0.00978085
-0.00961076
-0.00944171
-0.00927488
-0.00911129
-0.00895174
-0.00879683
-0.00864701
-0.00850254
-0.00836358
-0.00823015
-0.00810217
-0.00797951
-0.00786194
-0.00774922
-0.00764104
-0.00753711
-0.00743708
-0.00734064
-0.00724744
-0.00715717
-0.00706949
-0.00698412
-0.00690073
-0.00681907
-0.00673885
-0.00665983
-0.00658178
-0.00650448
-0.00642773
-0.00635134
-0.00627514
-0.00619898
-0.00612273
-0.00604623
-0.00596939
-0.00589209
-0.00581423
-0.00573571
-0.00565643
-0.00557631
-0.00549524
-0.00541309
-0.00532974
-0.00524497
-0.00515856
-0.00507015
-0.00497929
-0.00488542
-0.00478785
-0.00468587
-0.00457886
-0.0044664
-0.0043486
-0.0042282
-0.00410668
-0.00397246
0.00323399
0.0030671
0.00288978
0.0027386
0.00260494
0.00247865
0.00235314
0.00222243
0.00207975
0.00191712
0.00172494
0.00149161
0.00120317
0.000843259
0.000393286
-0.000167061
-0.000858893
-0.0017028
-0.00271714
-0.00391598
-0.00530697
-0.00688928
-0.00865211
-0.0105738
-0.0126219
-0.0147543
-0.016921
-0.0190666
-0.0211329
-0.0230614
-0.0247961
-0.0262848
-0.0274809
-0.0283444
-0.0288428
-0.0289513
-0.0286532
-0.0279408
-0.0268177
-0.0252967
-0.0233984
-0.0211524
-0.0185971
-0.0157785
-0.0127497
-0.00956902
-0.00629816
-0.00300051
0.0002611
0.00342634
0.00643926
0.00924972
0.0118145
0.0140977
0.0160706
0.0177113
0.0190034
0.0199353
0.0204982
0.0206861
0.0204946
0.0199241
0.0189761
0.0176552
0.0159741
0.0139528
0.0116194
0.00901216
0.00617867
0.0031757
6.75881e-05
-0.00307575
-0.00618137
-0.00917625
-0.0119902
-0.0145593
-0.0168278
-0.0187509
-0.0202975
-0.0214524
-0.0222171
-0.0226081
-0.0226563
-0.0224057
-0.0219093
-0.0212256
-0.0204135
-0.0195286
-0.018619
-0.0177232
-0.0168691
-0.0160749
-0.0153501
-0.0146984
-0.0141195
-0.013611
-0.0131697
-0.0127919
-0.0124741
-0.0122122
-0.0120016
-0.0118371
-0.0117128
-0.0116223
-0.0115587
-0.0115152
-0.0114852
-0.0114621
-0.0114402
-0.0114145
-0.0113806
-0.0113353
-0.0112763
-0.0112022
-0.0111124
-0.0110073
-0.0108876
-0.0107547
-0.0106103
-0.0104563
-0.0102947
-0.0101277
-0.00995717
-0.00978489
-0.00961256
-0.00944159
-0.0092732
-0.00910839
-0.00894792
-0.00879237
-0.00864214
-0.00849747
-0.00835848
-0.00822514
-0.00809736
-0.00797497
-0.00785772
-0.00774535
-0.00763754
-0.00753397
-0.00743431
-0.00733821
-0.00724534
-0.00715537
-0.00706798
-0.00698286
-0.00689971
-0.00681825
-0.00673821
-0.00665936
-0.00658145
-0.00650426
-0.00642761
-0.00635131
-0.00627519
-0.00619909
-0.00612289
-0.00604644
-0.00596964
-0.00589237
-0.00581454
-0.00573605
-0.00565681
-0.00557672
-0.0054957
-0.00541362
-0.00533036
-0.00524575
-0.00515958
-0.00507157
-0.00498135
-0.00488844
-0.00479225
-0.00469215
-0.00458752
-0.00447787
-0.00436327
-0.00424505
-0.00412414
-0.0040027
0.00356196
0.00334368
0.00311822
0.0029345
0.002778
0.00263215
0.00248553
0.00232773
0.00214739
0.00193157
0.00166534
0.00133124
0.000909036
0.000375909
-0.000293005
-0.00112345
-0.00214042
-0.00336593
-0.00481664
-0.00650119
-0.00841803
-0.0105538
-0.0128828
-0.0153672
-0.0179593
-0.0206032
-0.0232383
-0.0258019
-0.028232
-0.0304694
-0.0324593
-0.0341522
-0.0355048
-0.0364805
-0.0370496
-0.0371898
-0.0368865
-0.0361341
-0.0349393
-0.0333151
-0.0312837
-0.0288774
-0.0261375
-0.023114
-0.0198638
-0.0164495
-0.0129375
-0.00939577
-0.00589174
-0.00248979
0.00075071
0.00377711
0.0065447
0.00901718
0.0111665
0.0129721
0.0144193
0.0154981
0.0162015
0.0165239
0.0164606
0.01601
0.0151729
0.0139507
0.012353
0.0103975
0.00811095
0.00553096
0.00270594
-0.000305442
-0.00343583
-0.00661141
-0.0097547
-0.0127876
-0.0156348
-0.0182266
-0.0205024
-0.0224121
-0.0239201
-0.025005
-0.0256641
-0.0259117
-0.0257777
-0.025307
-0.0245568
-0.0235921
-0.0224815
-0.0212916
-0.0200824
-0.0189034
-0.0177918
-0.0167718
-0.0158565
-0.0150494
-0.0143483
-0.0137471
-0.0132381
-0.0128133
-0.0124648
-0.0121849
-0.0119661
-0.0118006
-0.0116805
-0.0115976
-0.0115438
-0.011511
-0.0114917
-0.0114786
-0.0114653
-0.0114465
-0.0114177
-0.0113755
-0.0113177
-0.0112432
-0.0111516
-0.0110435
-0.0109199
-0.0107827
-0.0106336
-0.0104749
-0.0103089
-0.0101376
-0.00996323
-0.00978759
-0.00961239
-0.00943905
-0.00926878
-0.00910252
-0.00894101
-0.00878478
-0.00863418
-0.00848939
-0.00835047
-0.00821737
-0.00808995
-0.007968
-0.00785125
-0.0077394
-0.00763213
-0.0075291
-0.00742997
-0.00733437
-0.00724198
-0.00715246
-0.00706548
-0.00698073
-0.00689792
-0.00681677
-0.00673702
-0.0066584
-0.00658071
-0.00650371
-0.00642723
-0.00635107
-0.00627507
-0.00619907
-0.00612295
-0.00604658
-0.00596985
-0.00589264
-0.00581486
-0.00573643
-0.00565724
-0.00557722
-0.00549627
-0.00541428
-0.00533116
-0.00524675
-0.00516089
-0.00507336
-0.00498387
-0.00489202
-0.00479732
-0.00469917
-0.00459691
-0.00448999
-0.00437833
-0.00426196
-0.00414119
-0.00403081
0.00367085
0.00340634
0.00313725
0.00292279
0.00274162
0.00256987
0.00239037
0.0021873
0.0019437
0.00164072
0.00125715
0.000768971
0.000149384
-0.000630631
-0.00160105
-0.0027909
-0.00422573
-0.00592472
-0.00789785
-0.0101433
-0.0126461
-0.0153771
-0.0182948
-0.0213467
-0.0244725
-0.0276076
-0.0306856
-0.0336419
-0.0364147
-0.0389465
-0.041185
-0.0430834
-0.0446003
-0.0457004
-0.0463552
-0.0465426
-0.0462483
-0.0454681
-0.0442085
-0.0424821
-0.0403133
-0.0377366
-0.0347964
-0.031546
-0.0280467
-0.0243657
-0.020575
-0.016748
-0.0129577
-0.00927388
-0.00576054
-0.00247413
0.000538045
0.00323844
0.00559904
0.00760032
0.00922955
0.0104787
0.0113425
0.0118166
0.0118964
0.0115784
0.0108622
0.00974714
0.00823925
0.0063541
0.00411728
0.00156612
-0.00124983
-0.00426951
-0.00742212
-0.0106296
-0.0138096
-0.0168791
-0.0197572
-0.0223694
-0.0246497
-0.0265437
-0.0280112
-0.0290264
-0.0295815
-0.0296879
-0.0293739
-0.0286839
-0.0276772
-0.026424
-0.0250006
-0.0234842
-0.0219468
-0.0204501
-0.0190425
-0.0177568
-0.0166116
-0.0156127
-0.0147568
-0.0140349
-0.013435
-0.0129441
-0.0125495
-0.0122394
-0.0120023
-0.0118275
-0.0117046
-0.0116235
-0.0115741
-0.0115473
-0.0115343
-0.011527
-0.0115185
-0.0115028
-0.0114754
-0.0114329
-0.0113731
-0.0112952
-0.0111991
-0.0110855
-0.010956
-0.0108126
-0.0106574
-0.0104928
-0.0103212
-0.010145
-0.00996617
-0.0097868
-0.00960849
-0.00943268
-0.00926051
-0.00909287
-0.00893046
-0.00877371
-0.00862293
-0.00847823
-0.00833962
-0.00820699
-0.00808015
-0.00795886
-0.00784282
-0.0077317
-0.00762517
-0.00752285
-0.00742441
-0.00732947
-0.00723769
-0.00714874
-0.00706229
-0.00697802
-0.00689565
-0.00681489
-0.00673548
-0.00665718
-0.00657975
-0.006503
-0.00642672
-0.00635073
-0.00627489
-0.00619903
-0.00612302
-0.00604675
-0.00597009
-0.00589296
-0.00581525
-0.00573688
-0.00565777
-0.00557783
-0.00549697
-0.00541511
-0.00533214
-0.00524798
-0.00516247
-0.00507547
-0.00498674
-0.00489598
-0.00480275
-0.00470647
-0.00460644
-0.00450197
-0.00439283
-0.00427802
-0.00415703
-0.00405519
0.00346503
0.00316364
0.00285862
0.00261625
0.00240802
0.00220254
0.00197638
0.00170769
0.00137328
0.000947848
0.000403543
-0.000290195
-0.00116621
-0.00225837
-0.0035996
-0.00521907
-0.00713902
-0.00937159
-0.011916
-0.0147569
-0.017864
-0.0211931
-0.0246889
-0.0282877
-0.0319219
-0.0355226
-0.0390224
-0.0423571
-0.045467
-0.0482964
-0.0507946
-0.0529153
-0.0546172
-0.0558646
-0.0566278
-0.0568835
-0.0566164
-0.0558224
-0.0545071
-0.0526832
-0.0503762
-0.0476227
-0.0444695
-0.0409737
-0.0372007
-0.0332232
-0.0291186
-0.024967
-0.0208479
-0.0168376
-0.0130063
-0.00941564
-0.00611682
-0.00314977
-0.000543318
0.0016837
0.00352033
0.00496088
0.00600227
0.00664183
0.00687577
0.00669916
0.00610998
0.00510672
0.00369154
0.00187809
-0.00030895
-0.002832
-0.00563987
-0.00866862
-0.0118435
-0.0150818
-0.0182963
-0.0213986
-0.0243029
-0.0269296
-0.0292082
-0.0310799
-0.0325
-0.0334409
-0.0338892
-0.0338535
-0.0333599
-0.0324519
-0.0311896
-0.0296465
-0.0279052
-0.0260517
-0.0241694
-0.0223325
-0.0206014
-0.0190193
-0.0176123
-0.0163901
-0.0153503
-0.0144817
-0.0137682
-0.013192
-0.0127353
-0.0123814
-0.0121147
-0.011921
-0.011787
-0.0117001
-0.0116486
-0.0116217
-0.0116093
-0.0116026
-0.0115939
-0.0115769
-0.0115468
-0.0115002
-0.0114352
-0.011351
-0.0112478
-0.0111268
-0.0109898
-0.0108389
-0.0106765
-0.0105054
-0.0103279
-0.0101465
-0.00996326
-0.00978025
-0.00959906
-0.00942105
-0.00924731
-0.00907867
-0.00891572
-0.00875885
-0.00860826
-0.00846401
-0.00832605
-0.0081942
-0.00806825
-0.00794789
-0.0078328
-0.00772264
-0.00761703
-0.00751562
-0.00741802
-0.00732388
-0.00723284
-0.00714457
-0.00705874
-0.00697503
-0.00689317
-0.00681286
-0.00673385
-0.0066559
-0.00657878
-0.0065023
-0.00642625
-0.00635047
-0.00627479
-0.00619907
-0.00612319
-0.00604702
-0.00597046
-0.0058934
-0.00581577
-0.00573747
-0.00565843
-0.00557857
-0.00549781
-0.00541609
-0.00533331
-0.0052494
-0.00516427
-0.0050778
-0.00498982
-0.00490008
-0.00480819
-0.00471356
-0.00461545
-0.00451302
-0.00440585
-0.00429236
-0.00417093
-0.00407484
0.00286553
0.00254006
0.00220941
0.00194279
0.00170493
0.00145742
0.00117056
0.000816345
0.000365214
-0.000214618
-0.000957363
-0.00189943
-0.0030784
-0.00453103
-0.00629045
-0.00838279
-0.0108236
-0.013615
-0.0167434
-0.0201792
-0.0238778
-0.0277826
-0.0318283
-0.0359448
-0.0400611
-0.0441074
-0.0480174
-0.0517283
-0.0551814
-0.0583219
-0.0610984
-0.0634636
-0.0653744
-0.0667929
-0.0676873
-0.0680322
-0.0678104
-0.0670177
-0.0656575
-0.0637429
-0.0613005
-0.058368
-0.0549948
-0.0512409
-0.0471762
-0.0428785
-0.0384313
-0.0339215
-0.0294362
-0.0250595
-0.0208688
-0.0169326
-0.0133074
-0.0100371
-0.00715228
-0.00467175
-0.00260494
-0.000954997
0.000277772
0.00109299
0.00148819
0.00145835
0.000998969
0.000108032
-0.0012148
-0.00295807
-0.00509759
-0.00759501
-0.010397
-0.0134361
-0.0166334
-0.0199011
-0.0231469
-0.0262773
-0.0292015
-0.0318352
-0.0341036
-0.0359442
-0.0373085
-0.0381672
-0.0385029
-0.0383213
-0.0376468
-0.0365219
-0.0350064
-0.0331758
-0.0311173
-0.0289245
-0.0266906
-0.0245016
-0.0224301
-0.0205308
-0.0188383
-0.0173682
-0.0161201
-0.0150819
-0.0142342
-0.0135546
-0.01302
-0.0126087
-0.0123006
-0.0120776
-0.0119231
-0.0118222
-0.0117609
-0.0117269
-0.0117088
-0.0116969
-0.0116827
-0.0116596
-0.0116227
-0.0115686
-0.0114953
-0.0114024
-0.0112903
-0.0111604
-0.0110148
-0.0108559
-0.0106862
-0.0105085
-0.0103253
-0.0101391
-0.00995198
-0.00976592
-0.00958248
-0.00940293
-0.00922829
-0.00905928
-0.00889641
-0.00873999
-0.00859013
-0.00844682
-0.00830994
-0.00817928
-0.00805455
-0.00793544
-0.00782158
-0.00771261
-0.00760814
-0.00750779
-0.0074112
-0.00731798
-0.00722779
-0.00714029
-0.00705516
-0.00697208
-0.00689077
-0.00681095
-0.00673237
-0.0066548
-0.00657801
-0.0065018
-0.00642599
-0.00635041
-0.0062749
-0.00619933
-0.00612356
-0.00604749
-0.00597101
-0.00589403
-0.00581646
-0.00573822
-0.00565925
-0.00557947
-0.00549882
-0.00541722
-0.00533463
-0.00525098
-0.0051662
-0.00508023
-0.00499292
-0.00490407
-0.00481329
-0.00472
-0.0046234
-0.00452251
-0.00441674
-0.00430433
-0.00418236
-0.00408934
0.00182322
0.0014889
0.00114485
0.000858541
0.000589096
0.000292231
-6.74326e-05
-0.000523759
-0.00111232
-0.00187088
-0.0028392
-0.00405836
-0.00556896
-0.00740846
-0.00960774
-0.0121873
-0.0151541
-0.0184987
-0.0221947
-0.0261997
-0.0304578
-0.0349032
-0.0394647
-0.0440694
-0.0486454
-0.0531237
-0.0574389
-0.061529
-0.0653351
-0.0688011
-0.0718737
-0.0745029
-0.0766426
-0.0782521
-0.0792968
-0.0797488
-0.0795885
-0.0788113
-0.0774184
-0.075423
-0.0728519
-0.069744
-0.0661503
-0.0621339
-0.0577683
-0.0531362
-0.0483272
-0.0434354
-0.0385557
-0.0337807
-0.0291965
-0.0248797
-0.020894
-0.0172884
-0.0140966
-0.0113386
-0.00902249
-0.00714882
-0.00571468
-0.00471746
-0.0041576
-0.00403946
-0.0043691
-0.00514979
-0.0063832
-0.00805986
-0.0101556
-0.0126308
-0.0154295
-0.0184804
-0.0216999
-0.0249952
-0.0282688
-0.0314221
-0.0343599
-0.0369932
-0.0392433
-0.0410442
-0.0423445
-0.0431124
-0.043329
-0.0429971
-0.04214
-0.0407989
-0.0390336
-0.0369206
-0.0345504
-0.0320224
-0.0294382
-0.0268945
-0.0244756
-0.0222475
-0.0202545
-0.0185192
-0.0170444