/*--------------------------------*- C++ -*----------------------------------*\
  =========                 |
  \\      /  F ield         | OpenFOAM: The Open Source CFD Toolbox
   \\    /   O peration     | Website:  https://openfoam.org
    \\  /    A nd           | Version:  8
     \\/     M anipulation  |
\*---------------------------------------------------------------------------*/
FoamFile
{
    version     2.0;
    format      ascii;
    class       surfaceScalarField;
    location    "0.46";
    object      phi;
}
// * * * * * * * * * * * * * * * * * * * * * * * * * * * * * * * * * * * * * //

dimensions      [0 3 -1 0 0 0 0];

internalField   nonuniform List<scalar> 
24170
(
-5.87723e-12
5.87723e-12
1.15995e-12
-7.03718e-12
2.00666e-11
-1.89066e-11
4.83118e-11
-2.82453e-11
8.45888e-11
-3.62769e-11
1.28959e-10
-4.43702e-11
1.82068e-10
-5.31086e-11
2.44471e-10
-6.24032e-11
3.16184e-10
-7.17134e-11
3.96558e-10
-8.03742e-11
4.84518e-10
-8.79599e-11
5.79192e-10
-9.46734e-11
6.80873e-10
-1.01681e-10
7.91827e-10
-1.10955e-10
9.13882e-10
-1.22055e-10
1.0238e-09
-1.09918e-10
1.022e-09
1.80102e-12
1.83235e-09
-8.10348e-10
-1.03159e-11
1.61931e-11
1.5593e-11
-3.29461e-11
7.77378e-11
-8.10514e-11
1.68778e-10
-1.19285e-10
2.85146e-10
-1.52645e-10
4.26867e-10
-1.86091e-10
5.9558e-10
-2.21822e-10
7.92496e-10
-2.59319e-10
1.01704e-09
-2.9626e-10
1.26639e-09
-3.29724e-10
1.53591e-09
-3.57481e-10
1.82035e-09
-3.79109e-10
2.11493e-09
-3.96257e-10
2.41366e-09
-4.09688e-10
2.69498e-09
-4.03377e-10
2.86242e-09
-2.77358e-10
2.47393e-09
3.90292e-10
4.14357e-09
1.62704e-10
-7.99072e-12
2.41838e-11
4.44078e-11
-8.53446e-11
1.5877e-10
-1.95414e-10
3.23476e-10
-2.83991e-10
5.32815e-10
-3.61984e-10
7.86639e-10
-4.39915e-10
1.08726e-09
-5.22444e-10
1.43602e-09
-6.08078e-10
1.83094e-09
-6.91178e-10
2.26575e-09
-7.64534e-10
2.73019e-09
-8.21929e-10
3.21098e-09
-8.59899e-10
3.69136e-09
-8.7663e-10
4.14399e-09
-8.62323e-10
4.50256e-09
-7.61944e-10
4.57583e-09
-3.50624e-10
3.794e-09
1.17212e-09
6.54338e-09
1.3942e-09
1.29696e-12
2.28869e-11
8.92869e-11
-1.73335e-10
2.65977e-10
-3.72104e-10
5.15981e-10
-5.33995e-10
8.31518e-10
-6.77521e-10
1.2121e-09
-8.20496e-10
1.66029e-09
-9.70631e-10
2.17688e-09
-1.12467e-09
2.7575e-09
-1.2718e-09
3.39094e-09
-1.39798e-09
4.05893e-09
-1.48992e-09
4.73615e-09
-1.53711e-09
5.38731e-09
-1.52779e-09
5.95464e-09
-1.42966e-09
6.32148e-09
-1.12879e-09
6.23353e-09
-2.62671e-10
5.18608e-09
2.21957e-09
8.85913e-09
2.87033e-09
1.75611e-11
5.32575e-12
1.51604e-10
-3.07378e-10
4.01669e-10
-6.22168e-10
7.49044e-10
-8.8137e-10
1.1839e-09
-1.11237e-09
1.70515e-09
-1.34175e-09
2.31508e-09
-1.58056e-09
3.01315e-09
-1.82275e-09
3.79152e-09
-2.05017e-09
4.63247e-09
-2.23892e-09
5.50736e-09
-2.36481e-09
6.37533e-09
-2.40509e-09
7.1782e-09
-2.33066e-09
7.82513e-09
-2.07659e-09
8.15915e-09
-1.46281e-09
7.91071e-09
-1.42325e-11
6.71651e-09
3.41377e-09
1.09861e-08
4.58957e-09
4.11411e-11
-3.58154e-11
2.32158e-10
-4.98395e-10
5.67212e-10
-9.57222e-10
1.02401e-09
-1.33817e-09
1.59055e-09
-1.67891e-09
2.2648e-09
-2.016e-09
3.04814e-09
-2.3639e-09
3.9379e-09
-2.7125e-09
4.92166e-09
-3.03393e-09
5.9738e-09
-3.29107e-09
7.0535e-09
-3.44451e-09
8.10224e-09
-3.45382e-09
9.03768e-09
-3.26609e-09
9.73979e-09
-2.7787e-09
1.00294e-08
-1.75245e-09
9.66193e-09
3.53266e-10
8.42917e-09
4.64653e-09
1.28585e-08
6.55679e-09
7.17244e-11
-1.0754e-10
3.30953e-10
-7.57624e-10
7.62661e-10
-1.38893e-09
1.3403e-09
-1.91581e-09
2.04934e-09
-2.38795e-09
2.88637e-09
-2.85302e-09
3.85117e-09
-3.32871e-09
4.93814e-09
-3.79947e-09
6.12945e-09
-4.22524e-09
7.39069e-09
-4.5523e-09
8.66796e-09
-4.72179e-09
9.88494e-09
-4.6708e-09
1.09374e-08
-4.31859e-09
1.16849e-08
-3.52617e-09
1.19457e-08
-2.01326e-09
1.15253e-08
7.73693e-10
1.03537e-08
5.81808e-09
1.44317e-08
8.78044e-09
1.08732e-10
-2.16272e-10
4.46997e-10
-1.09589e-09
9.86358e-10
-1.92829e-09
1.6948e-09
-2.62425e-09
2.55469e-09
-3.24784e-09
3.5606e-09
-3.85893e-09
4.7101e-09
-4.47821e-09
5.99401e-09
-5.08338e-09
7.38867e-09
-5.6199e-09
8.8507e-09
-6.01434e-09
1.03138e-08
-6.18484e-09
1.16858e-08
-6.0428e-09
1.28461e-08
-5.47894e-09
1.36449e-08
-4.32493e-09
1.39147e-08
-2.28305e-09
1.35216e-08
1.16678e-09
1.2503e-08
6.83661e-09
1.56703e-08
1.12645e-08
1.51209e-10
-3.67481e-10
5.7812e-10
-1.5228e-09
1.23454e-09
-2.58471e-09
2.08131e-09
-3.47102e-09
3.09679e-09
-4.26332e-09
4.27286e-09
-5.035e-09
5.6043e-09
-5.80964e-09
7.07805e-09
-6.55713e-09
8.66475e-09
-7.20659e-09
1.0313e-08
-7.66261e-09
1.19462e-08
-7.81799e-09
1.34607e-08
-7.55729e-09
1.47271e-08
-6.74534e-09
1.55974e-08
-5.19527e-09
1.593e-08
-2.61561e-09
1.56504e-08
1.44639e-09
1.48692e-08
7.61774e-09
1.65391e-08
1.40005e-08
1.97781e-10
-5.65261e-10
7.20809e-10
-2.04583e-09
1.50098e-09
-3.36488e-09
2.48993e-09
-4.45997e-09
3.66092e-09
-5.43432e-09
5.00239e-09
-6.37647e-09
6.5059e-09
-7.31315e-09
8.15466e-09
-8.20589e-09
9.91453e-09
-8.96646e-09
1.17282e-08
-9.47628e-09
1.35124e-08
-9.60216e-09
1.5158e-08
-9.20293e-09
1.65354e-08
-8.12269e-09
1.75082e-08
-6.16811e-09
1.79662e-08
-3.07363e-09
1.78857e-08
1.52688e-09
1.74197e-08
8.08379e-09
1.69989e-08
1.69599e-08
2.46875e-10
-8.12136e-10
8.70087e-10
-2.66904e-09
1.77656e-09
-4.27135e-09
2.90649e-09
-5.5899e-09
4.22674e-09
-6.75456e-09
5.72155e-09
-7.87129e-09
7.37914e-09
-8.97075e-09
9.17963e-09
-1.00064e-08
1.10858e-08
-1.08727e-08
1.30377e-08
-1.14282e-08
1.49504e-08
-1.15148e-08
1.67162e-08
-1.09688e-08
1.82134e-08
-9.61991e-09
1.93248e-08
-7.27951e-09
1.99725e-08
-3.72129e-09
2.01711e-08
1.32826e-09
2.00911e-08
8.16381e-09
1.7005e-08
2.00849e-08
2.4767e-10
-1.05981e-09
8.50281e-10
-3.27165e-09
1.71108e-09
-5.13216e-09
2.76848e-09
-6.6473e-09
3.98837e-09
-7.97445e-09
5.35381e-09
-9.23672e-09
6.85239e-09
-1.04693e-08
8.46583e-09
-1.16198e-08
1.01623e-08
-1.25691e-08
1.1892e-08
-1.31579e-08
1.35865e-08
-1.32093e-08
1.51612e-08
-1.25435e-08
1.65251e-08
-1.09838e-08
1.75971e-08
-8.35156e-09
1.83347e-08
-4.45886e-09
1.87705e-08
8.92458e-10
1.90479e-08
7.88641e-09
1.66231e-08
1.94298e-08
3.24125e-10
-1.38393e-09
1.09858e-09
-4.04611e-09
2.18495e-09
-6.21853e-09
3.50057e-09
-7.96292e-09
4.99902e-09
-9.4729e-09
6.6564e-09
-1.08941e-08
8.45609e-09
-1.2269e-08
1.03767e-08
-1.35404e-08
1.23836e-08
-1.4576e-08
1.44245e-08
-1.51988e-08
1.64289e-08
-1.52137e-08
1.8313e-08
-1.44275e-08
1.99899e-08
-1.26607e-08
2.13896e-08
-9.75127e-09
2.24862e-08
-5.55543e-09
2.33309e-08
4.77429e-11
2.40787e-08
7.13859e-09
1.57174e-08
2.49845e-08
4.13998e-10
-1.79793e-09
1.38871e-09
-5.02082e-09
2.73155e-09
-7.56137e-09
4.33192e-09
-9.56328e-09
6.12742e-09
-1.12684e-08
8.08511e-09
-1.28518e-08
1.01839e-08
-1.43678e-08
1.24012e-08
-1.57576e-08
1.47036e-08
-1.68785e-08
1.7043e-08
-1.75383e-08
1.93563e-08
-1.7527e-08
2.15709e-08
-1.66421e-08
2.3616e-08
-1.47059e-08
2.5442e-08
-1.15772e-08
2.70441e-08
-7.15755e-09
2.84888e-08
-1.397e-09
2.99307e-08
5.6967e-09
1.4045e-08
3.16031e-08
5.092e-10
-2.30713e-09
1.6909e-09
-6.20252e-09
3.29034e-09
-9.16081e-09
5.16261e-09
-1.14355e-08
7.22612e-09
-1.33319e-08
9.43747e-09
-1.50631e-08
1.17721e-08
-1.67025e-08
1.421e-08
-1.81955e-08
1.67266e-08
-1.93951e-08
1.92886e-08
-2.01003e-08
2.18538e-08
-2.00922e-08
2.4376e-08
-1.91643e-08
2.6815e-08
-1.71449e-08
2.91519e-08
-1.39141e-08
3.14069e-08
-9.41254e-09
3.36568e-08
-3.64686e-09
3.60434e-08
3.31008e-09
1.1323e-08
3.87654e-08
5.86908e-10
-2.89404e-09
1.92718e-09
-7.54279e-09
3.70757e-09
-1.09412e-08
5.74877e-09
-1.34768e-08
7.95016e-09
-1.55333e-08
1.02589e-08
-1.73719e-08
1.265e-08
-1.90936e-08
1.51125e-08
-2.06581e-08
1.7641e-08
-2.19236e-08
2.0231e-08
-2.26902e-08
2.2878e-08
-2.27392e-08
2.55799e-08
-2.18662e-08
2.8343e-08
-1.9908e-08
3.11899e-08
-1.6761e-08
3.41698e-08
-1.23925e-08
3.73669e-08
-6.84395e-09
4.09032e-08
-2.26217e-10
7.29421e-09
4.4932e-08
5.96084e-10
-3.49012e-09
1.92671e-09
-8.87341e-09
3.65226e-09
-1.26668e-08
5.57666e-09
-1.54011e-08
7.58989e-09
-1.75465e-08
9.63615e-09
-1.94181e-08
1.16961e-08
-2.11535e-08
1.3776e-08
-2.2738e-08
1.59005e-08
-2.40481e-08
1.81081e-08
-2.48978e-08
2.04483e-08
-2.50793e-08
2.29795e-08
-2.43975e-08
2.57689e-08
-2.26974e-08
2.88925e-08
-1.98846e-08
3.24361e-08
-1.59361e-08
3.64953e-08
-1.09032e-08
4.11731e-08
-4.90402e-09
1.88854e-09
4.65788e-08
4.33432e-10
-3.92355e-09
1.35461e-09
-9.79459e-09
2.48939e-09
-1.38015e-08
3.67822e-09
-1.659e-08
4.83054e-09
-1.86989e-08
5.90334e-09
-2.04909e-08
6.89231e-09
-2.21425e-08
7.82781e-09
-2.36735e-08
8.77173e-09
-2.4992e-08
9.8138e-09
-2.59399e-08
1.10665e-08
-2.6332e-08
1.26586e-08
-2.59896e-08
1.47284e-08
-2.47672e-08
1.74159e-08
-2.25721e-08
2.08557e-08
-1.93759e-08
2.51698e-08
-1.52173e-08
3.04621e-08
-1.01964e-08
-4.46195e-09
3.68126e-08
-8.41622e-11
-3.83939e-09
-3.46036e-10
-9.53272e-09
-8.01075e-10
-1.33465e-08
-1.4676e-09
-1.59234e-08
-2.36237e-09
-1.78041e-08
-3.48914e-09
-1.93642e-08
-4.82692e-09
-2.08047e-08
-6.3202e-09
-2.21802e-08
-7.87339e-09
-2.34388e-08
-9.35074e-09
-2.44625e-08
-1.05813e-08
-2.51014e-08
-1.13682e-08
-2.52027e-08
-1.15008e-08
-2.46346e-08
-1.07686e-08
-2.33042e-08
-8.97543e-09
-2.11691e-08
-5.95174e-09
-1.8241e-08
-1.56406e-09
-1.45841e-08
-1.03026e-08
4.27656e-09
-5.43365e-10
-3.29603e-09
-1.78169e-09
-8.29439e-09
-3.47077e-09
-1.16574e-08
-5.48987e-09
-1.39043e-08
-7.78161e-09
-1.55124e-08
-1.03161e-08
-1.68296e-08
-1.3067e-08
-1.80539e-08
-1.59935e-08
-1.92537e-08
-1.90293e-08
-2.04029e-08
-2.2078e-08
-2.14139e-08
-2.50132e-08
-2.21663e-08
-2.76845e-08
-2.25314e-08
-2.99263e-08
-2.23928e-08
-3.15689e-08
-2.16616e-08
-3.24503e-08
-2.02876e-08
-3.24272e-08
-1.82641e-08
-3.1384e-08
-1.56273e-08
-1.24503e-08
-2.92363e-08
-7.44889e-10
-2.55114e-09
-2.41771e-09
-6.62158e-09
-4.66012e-09
-9.415e-09
-7.29013e-09
-1.12743e-08
-1.02168e-08
-1.25857e-08
-1.33959e-08
-1.36505e-08
-1.68015e-08
-1.46483e-08
-2.04043e-08
-1.56509e-08
-2.41575e-08
-1.66497e-08
-2.79891e-08
-1.75823e-08
-3.17993e-08
-1.8356e-08
-3.54638e-08
-1.8867e-08
-3.884e-08
-1.90166e-08
-4.1777e-08
-1.87247e-08
-4.41254e-08
-1.79392e-08
-4.57487e-08
-1.66408e-08
-4.65315e-08
-1.48446e-08
-1.25973e-08
-4.63845e-08
-7.62757e-10
-1.78838e-09
-2.48517e-09
-4.89916e-09
-4.79665e-09
-7.10352e-09
-7.5022e-09
-8.56878e-09
-1.04998e-08
-9.58811e-09
-1.37414e-08
-1.04089e-08
-1.72049e-08
-1.11847e-08
-2.08734e-08
-1.19825e-08
-2.4719e-08
-1.28041e-08
-2.86939e-08
-1.36074e-08
-3.27259e-08
-1.4324e-08
-3.67188e-08
-1.48741e-08
-4.05569e-08
-1.51785e-08
-4.41121e-08
-1.51694e-08
-4.72532e-08
-1.47981e-08
-4.98546e-08
-1.40394e-08
-5.18055e-08
-1.28937e-08
-1.13874e-08
-5.30153e-08
-6.60357e-10
-1.12802e-09
-2.18585e-09
-3.37367e-09
-4.25908e-09
-5.03029e-09
-6.70013e-09
-6.12773e-09
-9.4091e-09
-6.87914e-09
-1.23393e-08
-7.4787e-09
-1.5474e-08
-8.05004e-09
-1.88063e-08
-8.65026e-09
-2.2324e-08
-9.28636e-09
-2.60001e-08
-9.9313e-09
-2.9787e-08
-1.05371e-08
-3.36157e-08
-1.10454e-08
-3.73976e-08
-1.13966e-08
-4.10299e-08
-1.15371e-08
-4.44024e-08
-1.14256e-08
-4.74055e-08
-1.10364e-08
-4.99374e-08
-1.03618e-08
-9.41412e-09
-5.19107e-08
-5.01796e-10
-6.26228e-10
-1.71586e-09
-2.1596e-09
-3.40535e-09
-3.3408e-09
-5.41661e-09
-4.11648e-09
-7.6584e-09
-4.63735e-09
-1.00885e-08
-5.04856e-09
-1.26949e-08
-5.44364e-09
-1.54779e-08
-5.86725e-09
-1.84367e-08
-6.32762e-09
-2.15597e-08
-6.80829e-09
-2.48194e-08
-7.27741e-09
-2.81699e-08
-7.69493e-09
-3.15478e-08
-8.01866e-09
-3.48755e-08
-8.20943e-09
-3.80659e-08
-8.23517e-09
-4.10285e-08
-8.07376e-09
-4.36755e-08
-7.71468e-09
-7.16153e-09
-4.59281e-08
-3.36388e-10
-2.8984e-10
-1.22125e-09
-1.27474e-09
-2.49743e-09
-2.06462e-09
-4.03878e-09
-2.57512e-09
-5.76611e-09
-2.91003e-09
-7.64338e-09
-3.17129e-09
-9.66249e-09
-3.42453e-09
-1.18281e-08
-3.7016e-09
-1.41461e-08
-4.00962e-09
-1.66153e-08
-4.33919e-09
-1.92222e-08
-4.67048e-09
-2.19392e-08
-4.97789e-09
-2.47241e-08
-5.23379e-09
-2.75218e-08
-5.41175e-09
-3.02677e-08
-5.48925e-09
-3.28919e-08
-5.44953e-09
-3.53238e-08
-5.28281e-09
-4.98828e-09
-3.7497e-08
-1.94324e-10
-9.55161e-11
-7.88497e-10
-6.8057e-10
-1.68864e-09
-1.16448e-09
-2.79387e-09
-1.46989e-09
-4.03895e-09
-1.66495e-09
-5.39504e-09
-1.8152e-09
-6.85723e-09
-1.96234e-09
-8.43215e-09
-2.12668e-09
-1.01285e-08
-2.31326e-09
-1.19506e-08
-2.51713e-09
-1.38941e-08
-2.72696e-09
-1.59441e-08
-2.92783e-09
-1.80746e-08
-3.10329e-09
-2.02491e-08
-3.23725e-09
-2.24229e-08
-3.31554e-09
-2.45454e-08
-3.32702e-09
-2.65638e-08
-3.26439e-09
-3.12541e-09
-2.84267e-08
-8.92853e-11
-6.23079e-12
-4.54763e-10
-3.15093e-10
-1.04488e-09
-5.74362e-10
-1.7818e-09
-7.32966e-10
-2.61548e-09
-8.31274e-10
-3.52463e-09
-9.0604e-10
-4.50679e-09
-9.80184e-10
-5.56866e-09
-1.0648e-09
-6.71909e-09
-1.16283e-09
-7.96428e-09
-1.27194e-09
-9.30478e-09
-1.38647e-09
-1.07338e-08
-1.49881e-09
-1.22366e-08
-1.60045e-09
-1.3791e-08
-1.6829e-09
-1.53681e-08
-1.73846e-09
-1.69342e-08
-1.76084e-09
-1.84531e-08
-1.74556e-09
-1.69063e-09
-1.98879e-08
-2.35485e-11
1.73177e-11
-2.24371e-10
-1.1427e-10
-5.75129e-10
-2.23604e-10
-1.02009e-09
-2.88004e-10
-1.52475e-09
-3.26611e-10
-2.07518e-09
-3.5561e-10
-2.67054e-09
-3.84833e-10
-3.31635e-09
-4.18985e-10
-4.01983e-09
-4.59354e-10
-4.78671e-09
-5.05063e-10
-5.6193e-09
-5.53876e-10
-6.51537e-09
-6.02738e-10
-7.46764e-09
-6.48184e-10
-8.46383e-09
-6.867e-10
-9.48727e-09
-7.15026e-10
-1.05177e-08
-7.3039e-10
-1.15327e-08
-7.30628e-10
-7.14491e-10
-1.25088e-08
7.115e-12
1.02027e-11
-8.38892e-11
-2.32662e-11
-2.58365e-10
-4.91278e-11
-4.82582e-10
-6.37875e-11
-7.3698e-10
-7.2213e-11
-1.01413e-09
-7.8459e-11
-1.31406e-09
-8.49046e-11
-1.64038e-09
-9.26682e-11
-1.99767e-09
-1.02062e-10
-2.38983e-09
-1.12898e-10
-2.81903e-09
-1.24677e-10
-3.28506e-09
-1.36705e-10
-3.78506e-09
-1.48184e-10
-4.31347e-09
-1.5829e-10
-4.86226e-09
-1.66243e-10
-5.42129e-09
-1.71352e-10
-5.97895e-09
-1.72974e-10
-1.70603e-10
-6.52284e-09
1.02027e-11
-1.30635e-11
-6.21913e-11
-1.25979e-10
-1.98192e-10
-2.76651e-10
-3.61555e-10
-4.54224e-10
-5.56285e-10
-6.69184e-10
-7.93861e-10
-9.30566e-10
-1.07875e-09
-1.23704e-09
-1.40328e-09
-1.57463e-09
-1.74761e-09
-1.91821e-09
1.00361e-10
-1.00361e-10
3.38648e-10
-2.38286e-10
6.52769e-10
-3.14122e-10
9.90331e-10
-3.37562e-10
1.31182e-09
-3.21493e-10
1.58783e-09
-2.76009e-10
1.79671e-09
-2.08881e-10
1.92267e-09
-1.25957e-10
1.95403e-09
-3.13545e-11
1.88176e-09
7.22614e-11
1.69857e-09
1.83199e-10
1.3972e-09
3.01369e-10
9.69665e-10
4.27531e-10
4.06299e-10
5.63367e-10
-3.0495e-10
7.11249e-10
-1.17888e-09
8.73932e-10
-2.233e-09
1.05412e-09
-3.4871e-09
1.2541e-09
-4.96252e-09
1.47542e-09
-6.68116e-09
1.71864e-09
-8.6642e-09
1.98304e-09
-1.09308e-08
2.26662e-09
-1.34968e-08
2.56593e-09
-1.63729e-08
2.87615e-09
-1.95639e-08
3.191e-09
-2.30668e-08
3.50286e-09
-2.68695e-08
3.80278e-09
-3.09503e-08
4.08072e-09
-3.52761e-08
4.32579e-09
-3.98027e-08
4.52663e-09
-4.44746e-08
4.67192e-09
-4.92255e-08
4.7509e-09
-5.39794e-08
4.75394e-09
-5.86526e-08
4.67311e-09
-6.31553e-08
4.5027e-09
-6.73948e-08
4.23956e-09
-7.12783e-08
3.88345e-09
-7.47154e-08
3.43715e-09
-7.76218e-08
2.90636e-09
-7.99213e-08
2.29954e-09
-8.15489e-08
1.62764e-09
-8.24529e-08
9.03911e-10
-8.25981e-08
1.45256e-10
-8.19524e-08
-6.45726e-10
-8.05163e-08
-1.43609e-09
-7.83008e-08
-2.21551e-09
-7.53312e-08
-2.9696e-09
-7.16465e-08
-3.68464e-09
-6.72976e-08
-4.34898e-09
-6.23444e-08
-4.95315e-09
-5.68545e-08
-5.48994e-09
-5.09e-08
-5.9545e-09
-4.45558e-08
-6.34415e-09
-3.78976e-08
-6.65821e-09
-3.1e-08
-6.89763e-09
-2.39354e-08
-7.06457e-09
-1.67735e-08
-7.16192e-09
-9.58072e-09
-7.19278e-09
-2.42119e-09
-7.15953e-09
4.64389e-09
-7.06508e-09
1.15551e-08
-6.91122e-09
1.82512e-08
-6.69607e-09
2.46708e-08
-6.41961e-09
3.0753e-08
-6.0822e-09
3.64365e-08
-5.68348e-09
4.16599e-08
-5.22347e-09
4.63631e-08
-4.70321e-09
5.04885e-08
-4.12531e-09
5.39829e-08
-3.49446e-09
5.68007e-08
-2.81775e-09
5.89055e-08
-2.10486e-09
6.02736e-08
-1.36809e-09
6.08964e-08
-6.22806e-10
6.07769e-08
1.19475e-10
5.99464e-08
8.30537e-10
5.84455e-08
1.50092e-09
5.63335e-08
2.112e-09
5.36844e-08
2.64904e-09
5.05845e-08
3.09993e-09
4.71285e-08
3.45598e-09
4.34161e-08
3.71243e-09
3.95473e-08
3.86881e-09
3.56185e-08
3.92883e-09
3.17185e-08
3.89998e-09
2.79256e-08
3.79285e-09
2.43054e-08
3.62023e-09
2.09093e-08
3.39609e-09
1.77747e-08
3.13465e-09
1.49251e-08
2.84956e-09
1.23719e-08
2.55322e-09
1.01154e-08
2.25651e-09
8.14678e-09
1.96861e-09
6.44975e-09
1.69704e-09
5.002e-09
1.44775e-09
3.77676e-09
1.22524e-09
2.74421e-09
1.03255e-09
1.8729e-09
8.71313e-10
1.13119e-09
7.41709e-10
4.88662e-10
6.4253e-10
-8.26219e-11
5.71284e-10
-6.06537e-10
5.23915e-10
-1.10343e-09
4.96896e-10
-1.58822e-09
4.84782e-10
-2.07092e-09
4.82701e-10
-2.55708e-09
4.86163e-10
-3.04828e-09
4.91203e-10
-3.54285e-09
4.94568e-10
-4.03667e-09
4.9382e-10
-4.52401e-09
4.87344e-10
-4.9983e-09
4.74282e-10
-5.45272e-09
4.54427e-10
-5.88083e-09
4.28104e-10
-6.27687e-09
3.96042e-10
-6.63612e-09
3.59253e-10
-6.95504e-09
3.18918e-10
-7.23133e-09
2.76294e-10
-7.46396e-09
2.32623e-10
-7.65303e-09
1.89072e-10
-7.79971e-09
1.46682e-10
-7.90604e-09
1.06331e-10
-7.97476e-09
6.87182e-11
-8.0091e-09
3.43415e-11
-8.01301e-09
3.91198e-12
-7.98956e-09
-2.34486e-11
-7.94315e-09
-4.64098e-11
-7.8774e-09
-6.57555e-11
-7.79586e-09
-8.15359e-11
-7.70188e-09
-9.39803e-11
-7.5985e-09
-1.03378e-10
-7.48846e-09
-1.10048e-10
-7.37414e-09
-1.14317e-10
-7.25763e-09
-1.16513e-10
-7.14068e-09
-1.16951e-10
-7.02475e-09
-1.15927e-10
-6.91104e-09
-1.1371e-10
-6.80049e-09
-1.10547e-10
-6.69384e-09
-1.06653e-10
-6.59162e-09
-1.02219e-10
-6.49421e-09
-9.74064e-11
-6.40186e-09
-9.23547e-11
-6.31468e-09
-8.718e-11
-6.2327e-09
-8.19782e-11
-6.15587e-09
-7.68277e-11
-6.08408e-09
-7.17911e-11
-6.01716e-09
-6.69178e-11
-5.95492e-09
-6.22458e-11
-5.89711e-09
-5.78035e-11
-5.8435e-09
-5.36111e-11
-5.79382e-09
-4.96815e-11
-5.7478e-09
-4.60219e-11
-5.70517e-09
-4.26342e-11
-5.66565e-09
-3.95163e-11
-5.62899e-09
-3.66625e-11
-5.59492e-09
-3.40639e-11
-5.56321e-09
-3.17097e-11
-5.53363e-09
-2.95867e-11
-5.50595e-09
-2.76807e-11
-5.47997e-09
-2.59757e-11
-5.45552e-09
-2.44549e-11
-5.43242e-09
-2.31002e-11
-5.41052e-09
-2.18913e-11
-5.38972e-09
-2.0803e-11
-5.36992e-09
-1.98012e-11
-5.35109e-09
-1.88341e-11
-5.33326e-09
-1.78217e-11
-5.31662e-09
-1.66424e-11
-5.30149e-09
-1.51268e-11
-5.28842e-09
-1.30736e-11
-5.27812e-09
-1.03042e-11
-5.27133e-09
-6.78449e-12
-5.26858e-09
-2.75057e-12
-5.26966e-09
1.07859e-12
-5.27242e-09
2.75876e-12
-5.27285e-09
4.2624e-13
-5.26295e-09
-9.89424e-12
-5.23108e-09
-3.18691e-11
-5.15824e-09
-7.28446e-11
-5.01669e-09
-1.41545e-10
-4.75908e-09
-2.57609e-10
-6.08156e-10
-4.15093e-09
1.68149e-10
-2.6851e-10
5.17315e-10
-5.87453e-10
9.32347e-10
-7.29154e-10
1.32589e-09
-7.31101e-10
1.62762e-09
-6.23223e-10
1.78031e-09
-4.28702e-10
1.73693e-09
-1.65504e-10
1.45785e-09
1.53126e-10
9.08874e-10
5.17621e-10
5.93497e-11
9.21785e-10
-1.11999e-09
1.36254e-09
-2.65834e-09
1.83972e-09
-4.58659e-09
2.35579e-09
-6.9386e-09
2.91538e-09
-9.75191e-09
3.52455e-09
-1.30677e-08
4.18976e-09
-1.69302e-08
4.91661e-09
-2.13847e-08
5.70861e-09
-2.64753e-08
6.56596e-09
-3.22413e-08
7.48463e-09
-3.8714e-08
8.45573e-09
-4.59125e-08
9.46521e-09
-5.38404e-08
1.04938e-08
-6.24815e-08
1.15172e-08
-7.17973e-08
1.25068e-08
-8.17245e-08
1.34301e-08
-9.21738e-08
1.42521e-08
-1.03029e-07
1.49364e-08
-1.14151e-07
1.54473e-08
-1.25376e-07
1.57513e-08
-1.36523e-07
1.5819e-08
-1.47399e-07
1.56269e-08
-1.57804e-07
1.5159e-08
-1.67538e-07
1.44075e-08
-1.76409e-07
1.33732e-08
-1.84235e-07
1.2066e-08
-1.90856e-07
1.05038e-08
-1.96131e-07
8.71218e-09
-1.99947e-07
6.72274e-09
-2.0222e-07
4.57202e-09
-2.02891e-07
2.29949e-09
-2.01939e-07
-4.82379e-11
-1.99356e-07
-2.43796e-09
-1.95187e-07
-4.81438e-09
-1.89483e-07
-7.14018e-09
-1.82319e-07
-9.37953e-09
-1.73788e-07
-1.15006e-08
-1.63997e-07
-1.34762e-08
-1.53062e-07
-1.52839e-08
-1.41108e-07
-1.69066e-08
-1.28265e-07
-1.83328e-08
-1.14664e-07
-1.95559e-08
-1.00434e-07
-2.05741e-08
-8.57027e-08
-2.13896e-08
-7.05924e-08
-2.2008e-08
-5.52201e-08
-2.24368e-08
-3.96971e-08
-2.26849e-08
-2.41291e-08
-2.27607e-08
-8.61692e-09
-2.26718e-08
6.74101e-09
-2.2423e-08
2.18438e-08
-2.2014e-08
3.65878e-08
-2.14401e-08
5.08694e-08
-2.07013e-08
6.45807e-08
-1.97935e-08
7.76091e-08
-1.87119e-08
8.98377e-08
-1.74521e-08
1.01146e-07
-1.60118e-08
1.11413e-07
-1.43921e-08
1.20518e-07
-1.25991e-08
1.28345e-07
-1.0645e-08
1.34789e-07
-8.54907e-09
1.39759e-07
-6.33819e-09
1.43183e-07
-4.04684e-09
1.45019e-07
-1.71614e-09
1.45246e-07
6.03633e-10
1.4389e-07
2.85687e-09
1.41011e-07
4.99138e-09
1.36706e-07
6.9534e-09
1.31112e-07
8.69455e-09
1.24395e-07
1.01731e-08
1.1675e-07
1.13569e-08
1.08393e-07
1.22258e-08
9.95485e-08
1.27734e-08
9.04414e-08
1.3007e-08
8.12871e-08
1.29472e-08
7.22814e-08
1.26259e-08
6.35941e-08
1.20834e-08
5.53631e-08
1.13656e-08
4.76926e-08
1.05201e-08
4.06522e-08
9.59356e-09
3.42793e-08
8.62939e-09
2.85819e-08
7.66604e-09
2.35427e-08
6.73623e-09
1.91239e-08
5.86657e-09
1.52717e-08
5.07746e-09
1.19211e-08
4.38309e-09
9.00083e-09
3.7916e-09
6.4373e-09
3.30524e-09
4.15903e-09
2.9208e-09
2.10006e-09
2.63025e-09
2.02292e-10
2.42168e-09
-1.58167e-09
2.28086e-09
-3.28839e-09
2.1915e-09
-4.94273e-09
2.13705e-09
-6.55898e-09
2.10241e-09
-8.1422e-09
2.07443e-09
-9.68998e-09
2.04235e-09
-1.11943e-08
1.99819e-09
-1.26437e-08
1.93671e-09
-1.40247e-08
1.85523e-09
-1.53235e-08
1.75327e-09
-1.65275e-08
1.63211e-09
-1.76258e-08
1.49434e-09
-1.861e-08
1.34347e-09
-1.94746e-08
1.18351e-09
-2.0217e-08
1.01865e-09
-2.08373e-08
8.52973e-10
-2.13385e-08
6.9025e-10
-2.17256e-08
5.33778e-10
-2.20056e-08
3.86288e-10
-2.21867e-08
2.49899e-10
-2.22785e-08
1.26122e-10
-2.22906e-08
1.5992e-11
-2.22336e-08
-8.0455e-11
-2.21172e-08
-1.62836e-10
-2.19511e-08
-2.31771e-10
-2.17447e-08
-2.87978e-10
-2.15063e-08
-3.32373e-10
-2.12437e-08
-3.66022e-10
-2.09637e-08
-3.90067e-10
-2.06723e-08
-4.05677e-10
-2.03748e-08
-4.13999e-10
-2.00756e-08
-4.16134e-10
-1.97784e-08
-4.13108e-10
-1.94863e-08
-4.05864e-10
-1.92016e-08
-3.95248e-10
-1.89262e-08
-3.82015e-10
-1.86616e-08
-3.66822e-10
-1.84088e-08
-3.50237e-10
-1.81684e-08
-3.32745e-10
-1.79408e-08
-3.14756e-10
-1.77262e-08
-2.96609e-10
-1.75244e-08
-2.78584e-10
-1.73353e-08
-2.60906e-10
-1.71585e-08
-2.43755e-10
-1.69935e-08
-2.27273e-10
-1.68397e-08
-2.11563e-10
-1.66966e-08
-1.96704e-10
-1.65635e-08
-1.82746e-10
-1.64398e-08
-1.6972e-10
-1.63248e-08
-1.57638e-10
-1.62179e-08
-1.46498e-10
-1.61182e-08
-1.36282e-10
-1.60253e-08
-1.26966e-10
-1.59385e-08
-1.18512e-10
-1.58572e-08
-1.1088e-10
-1.57809e-08
-1.04021e-10
-1.5709e-08
-9.78825e-11
-1.5641e-08
-9.24079e-11
-1.55766e-08
-8.75359e-11
-1.55153e-08
-8.31971e-11
-1.54568e-08
-7.9305e-11
-1.54009e-08
-7.57424e-11
-1.53474e-08
-7.23338e-11
-1.52964e-08
-6.88092e-11
-1.52482e-08
-6.477e-11
-1.52037e-08
-5.96755e-11
-1.51639e-08
-5.29094e-11
-1.51302e-08
-4.39836e-11
-1.5104e-08
-3.29494e-11
-1.50858e-08
-2.09996e-11
-1.50734e-08
-1.12394e-11
-1.50612e-08
-9.48712e-12
-1.50365e-08
-2.42413e-11
-1.49792e-08
-6.71779e-11
-1.48584e-08
-1.52734e-10
-1.46306e-08
-3.00674e-10
-1.42351e-08
-5.36955e-10
-1.3575e-08
-9.17721e-10
-1.66312e-09
-1.25201e-08
1.21712e-10
-3.90222e-10
3.25208e-10
-7.90949e-10
4.877e-10
-8.91647e-10
5.14782e-10
-7.58182e-10
3.28519e-10
-4.36961e-10
-1.39052e-10
3.88698e-11
-9.47496e-10
6.4294e-10
-2.15298e-09
1.35861e-09
-3.80823e-09
2.17287e-09
-5.96454e-09
3.07809e-09
-8.67313e-09
4.07112e-09
-1.19863e-08
5.15289e-09
-1.59584e-08
6.32791e-09
-2.06463e-08
7.60324e-09
-2.61087e-08
8.98694e-09
-3.24048e-08
1.04859e-08
-3.95916e-08
1.21034e-08
-4.77197e-08
1.38367e-08
-5.68283e-08
1.56746e-08
-6.69399e-08
1.75962e-08
-7.80543e-08
1.95701e-08
-9.0143e-08
2.1554e-08
-1.03145e-07
2.3496e-08
-1.16964e-07
2.53361e-08
-1.31466e-07
2.70083e-08
-1.4648e-07
2.84441e-08
-1.61803e-07
2.95751e-08
-1.77204e-07
3.03376e-08
-1.92432e-07
3.06756e-08
-2.07225e-07
3.05446e-08
-2.2132e-07
2.99139e-08
-2.34462e-07
2.87684e-08
-2.46412e-07
2.71089e-08
-2.56956e-07
2.49522e-08
-2.65912e-07
2.23292e-08
-2.7313e-07
1.92836e-08
-2.78495e-07
1.58689e-08
-2.81929e-07
1.21465e-08
-2.83389e-07
8.18286e-09
-2.82865e-07
4.04713e-09
-2.80374e-07
-1.90831e-10
-2.75967e-07
-4.45536e-09
-2.69722e-07
-8.68307e-09
-2.61723e-07
-1.28133e-08
-2.52071e-07
-1.67923e-08
-2.40879e-07
-2.0572e-08
-2.28269e-07
-2.41104e-08
-2.14372e-07
-2.7373e-08
-1.99323e-07
-3.03325e-08
-1.8326e-07
-3.29695e-08
-1.66321e-07
-3.52722e-08
-1.48641e-07
-3.72362e-08
-1.30351e-07
-3.88638e-08
-1.11578e-07
-4.01629e-08
-9.24402e-08
-4.11456e-08
-7.30503e-08
-4.18267e-08
-5.35135e-08
-4.22217e-08
-3.39291e-08
-4.23452e-08
-1.43918e-08
-4.22091e-08
5.00639e-09
-4.18212e-08
2.41728e-08
-4.11804e-08
4.30072e-08
-4.02745e-08
6.14041e-08
-3.90982e-08
7.92508e-08
-3.76402e-08
9.64263e-08
-3.58874e-08
1.12801e-07
-3.38263e-08
1.28235e-07
-3.14463e-08
1.42584e-07
-2.8741e-08
1.55697e-07
-2.57117e-08
1.6742e-07
-2.23689e-08
1.77606e-07
-1.87342e-08
1.86109e-07
-1.48418e-08
1.92802e-07
-1.07395e-08
1.97574e-07
-6.48823e-09
2.0034e-07
-2.16228e-09
2.01047e-07
2.14953e-09
1.99689e-07
6.34982e-09
1.96306e-07
1.03365e-08
1.9099e-07
1.40105e-08
1.83884e-07
1.72783e-08
1.75183e-07
2.00581e-08
1.65124e-07
2.22848e-08
1.53982e-07
2.39156e-08
1.42055e-07
2.49337e-08
1.29653e-07
2.53498e-08
1.17078e-07
2.5201e-08
1.04613e-07
2.45481e-08
9.25084e-08
2.34702e-08
8.09707e-08
2.20577e-08
7.01578e-08
2.04065e-08
6.01766e-08
1.86106e-08
5.1085e-08
1.67576e-08
4.28962e-08
1.4925e-08
3.55852e-08
1.31776e-08
2.90964e-08
1.15662e-08
2.33522e-08
1.01273e-08
1.82606e-08
8.88321e-09
1.37234e-08
7.84241e-09
9.64317e-09
7.00107e-09
5.92873e-09
6.3447e-09
2.49987e-09
5.85054e-09
-7.09653e-10
5.49038e-09
-3.75099e-09
5.23284e-09
-6.65962e-09
5.04568e-09
-9.4561e-09
4.89889e-09
-1.21486e-08
4.76692e-09
-1.47353e-08
4.62908e-09
-1.72073e-08
4.47018e-09
-1.95511e-08
4.2805e-09
-2.17512e-08
4.05533e-09
-2.37922e-08
3.79423e-09
-2.56602e-08
3.50018e-09
-2.73445e-08
3.17862e-09
-2.88377e-08
2.83663e-09
-3.01363e-08
2.48213e-09
-3.12409e-08
2.12327e-09
-3.21558e-08
1.76782e-09
-3.28883e-08
1.42283e-09
-3.34489e-08
1.09437e-09
-3.385e-08
7.87325e-10
-3.41054e-08
5.05361e-10
-3.42303e-08
2.50955e-10
-3.42398e-08
2.54864e-11
-3.41495e-08
-1.70718e-10
-3.39743e-08
-3.38057e-10
-3.37284e-08
-4.777e-10
-3.3425e-08
-5.91314e-10
-3.30765e-08
-6.80927e-10
-3.26937e-08
-7.48798e-10
-3.22865e-08
-7.97298e-10
-3.18633e-08
-8.28816e-10
-3.14316e-08
-8.45684e-10
-3.09977e-08
-8.50117e-10
-3.05666e-08
-8.44176e-10
-3.01427e-08
-8.29743e-10
-2.97294e-08
-8.08513e-10
-2.93295e-08
-7.81987e-10
-2.89448e-08
-7.51478e-10
-2.85769e-08
-7.18122e-10
-2.82268e-08
-6.82889e-10
-2.78949e-08
-6.46599e-10
-2.75816e-08
-6.09938e-10
-2.72867e-08
-5.73471e-10
-2.701e-08
-5.37656e-10
-2.67509e-08
-5.02863e-10
-2.65088e-08
-4.6938e-10
-2.62829e-08
-4.37427e-10
-2.60724e-08
-4.07165e-10
-2.58765e-08
-3.78704e-10
-2.56941e-08
-3.52114e-10
-2.55243e-08
-3.27423e-10
-2.53662e-08
-3.04631e-10
-2.52187e-08
-2.83713e-10
-2.50811e-08
-2.64619e-10
-2.49523e-08
-2.47282e-10
-2.48316e-08
-2.31624e-10
-2.4718e-08
-2.17549e-10
-2.4611e-08
-2.04958e-10
-2.45096e-08
-1.93738e-10
-2.44134e-08
-1.83772e-10
-2.43217e-08
-1.74922e-10
-2.4234e-08
-1.67021e-10
-2.41499e-08
-1.5984e-10
-2.40692e-08
-1.5304e-10
-2.39919e-08
-1.46108e-10
-2.39183e-08
-1.38299e-10
-2.38494e-08
-1.28632e-10
-2.37862e-08
-1.16039e-10
-2.37304e-08
-9.97928e-11
-2.3683e-08
-8.03317e-11
-2.36436e-08
-6.04757e-11
-2.36079e-08
-4.68766e-11
-2.35662e-08
-5.12595e-11
-2.34995e-08
-9.09246e-11
-2.33782e-08
-1.88445e-10
-2.31599e-08
-3.71067e-10
-2.27887e-08
-6.71859e-10
-2.21914e-08
-1.13421e-09
-2.12862e-08
-1.82296e-09
-2.87574e-09
-2.00736e-08
-2.14818e-12
-3.88073e-10
-1.28705e-10
-6.64392e-10
-4.77494e-10
-5.42858e-10
-1.12829e-09
-1.07385e-10
-2.15136e-09
5.8611e-10
-3.61248e-09
1.49999e-09
-5.57746e-09
2.60792e-09
-8.11099e-09
3.89214e-09
-1.12794e-08
5.34125e-09
-1.51504e-08
6.9491e-09
-1.97934e-08
8.71415e-09
-2.52793e-08
1.06388e-08
-3.16795e-08
1.27281e-08
-3.90647e-08
1.49885e-08
-4.75018e-08
1.74241e-08
-5.70499e-08
2.0034e-08
-6.77546e-08
2.28081e-08
-7.96412e-08
2.57233e-08
-9.27081e-08
2.87414e-08
-1.06919e-07
3.18074e-08
-1.22199e-07
3.48496e-08
-1.38427e-07
3.77822e-08
-1.55439e-07
4.05079e-08
-1.73026e-07
4.29233e-08
-1.90942e-07
4.49242e-08
-2.08909e-07
4.64114e-08
-2.26632e-07
4.72974e-08
-2.43805e-07
4.75111e-08
-2.60132e-07
4.70022e-08
-2.75331e-07
4.57438e-08
-2.8915e-07
4.37331e-08
-3.01372e-07
4.09904e-08
-3.1182e-07
3.75567e-08
-3.20359e-07
3.34909e-08
-3.26894e-07
2.88651e-08
-3.31372e-07
2.37615e-08
-3.33772e-07
1.82684e-08
-3.34102e-07
1.24771e-08
-3.32399e-07
6.47965e-09
-3.2872e-07
3.67544e-10
-3.23141e-07
-5.76928e-09
-3.15746e-07
-1.18504e-08
-3.06625e-07
-1.78042e-08
-2.95876e-07
-2.35624e-08
-2.83606e-07
-2.90623e-08
-2.6993e-07
-3.42481e-08
-2.54968e-07
-3.90718e-08
-2.38848e-07
-4.34939e-08
-2.21696e-07
-4.74844e-08
-2.03642e-07
-5.10229e-08
-1.84815e-07
-5.40991e-08
-1.6534e-07
-5.6712e-08
-1.45334e-07
-5.88692e-08
-1.24911e-07
-6.05859e-08
-1.04174e-07
-6.18823e-08
-8.32195e-08
-6.27815e-08
-6.21339e-08
-6.33073e-08
-4.09981e-08
-6.3481e-08
-1.98879e-08
-6.33193e-08
1.12265e-09
-6.28317e-08
2.19627e-08
-6.20204e-08
4.25532e-08
-6.0865e-08
6.2802e-08
-5.9347e-08
8.26081e-08
-5.74463e-08
1.01859e-07
-5.51385e-08
1.20431e-07
-5.23982e-08
1.38187e-07
-4.92022e-08
1.54979e-07
-4.55332e-08
1.70651e-07
-4.13831e-08
1.85037e-07
-3.67556e-08
1.97972e-07
-3.16691e-08
2.09289e-07
-2.61583e-08
2.18825e-07
-2.02762e-08
2.26432e-07
-1.40947e-08
2.31974e-07
-7.7043e-09
2.35337e-07
-1.21341e-09
2.36437e-07
5.24915e-09
2.35236e-07
1.15382e-08
2.31743e-07
1.75033e-08
2.26026e-07
2.29954e-08
2.18212e-07
2.78718e-08
2.08491e-07
3.20061e-08
1.9711e-07
3.52963e-08
1.84369e-07
3.76746e-08
1.70606e-07
3.91131e-08
1.5618e-07
3.96273e-08
1.41452e-07
3.9276e-08
1.26766e-07
3.81559e-08
1.1243e-07
3.63939e-08
9.87002e-08
3.41361e-08
8.57742e-08
3.15366e-08
7.37849e-08
2.87469e-08
6.28035e-08
2.59065e-08
5.28444e-08
2.31366e-08
4.38752e-08
2.05354e-08
3.58266e-08
1.81759e-08
2.86049e-08
1.61049e-08
2.21027e-08
1.43446e-08
1.62096e-08
1.28941e-08
1.08205e-08
1.17338e-08