/*--------------------------------*- C++ -*----------------------------------*\
  =========                 |
  \\      /  F ield         | OpenFOAM: The Open Source CFD Toolbox
   \\    /   O peration     | Website:  https://openfoam.org
    \\  /    A nd           | Version:  8
     \\/     M anipulation  |
\*---------------------------------------------------------------------------*/
FoamFile
{
    version     2.0;
    format      ascii;
    class       volVectorField;
    location    "0.46";
    object      U;
}
// * * * * * * * * * * * * * * * * * * * * * * * * * * * * * * * * * * * * * //

dimensions      [0 1 -1 0 0 0 0];

internalField   nonuniform List<vector> 
12225
(
(-1.51312e-05 2.13017e-06 0)
(-1.78229e-05 -4.63094e-07 0)
(2.51841e-05 -1.85501e-06 0)
(0.000100042 -3.06289e-06 0)
(0.000201377 -4.1386e-06 0)
(0.000327252 -5.31511e-06 0)
(0.000479408 -6.68219e-06 0)
(0.00066013 -8.2638e-06 0)
(0.000870561 -1.00157e-05 0)
(0.00110972 -1.18787e-05 0)
(0.00137468 -1.38498e-05 0)
(0.00166199 -1.61029e-05 0)
(0.00197052 -1.92029e-05 0)
(0.00230492 -2.43689e-05 0)
(0.00267872 -3.2767e-05 0)
(0.00311613 -3.83979e-05 0)
(0.00361208 -8.02275e-05 0)
(0.00144056 0.00163685 0)
(-3.25594e-05 7.48493e-06 0)
(-2.24795e-05 -1.00769e-05 0)
(0.000112595 -2.80231e-05 0)
(0.000339274 -4.34984e-05 0)
(0.000643134 -5.81818e-05 0)
(0.00101909 -7.40812e-05 0)
(0.00147138 -9.22819e-05 0)
(0.00200533 -0.000112819 0)
(0.00262264 -0.000134875 0)
(0.00331845 -0.000157232 0)
(0.00408139 -0.000178922 0)
(0.00489631 -0.00020008 0)
(0.00574879 -0.000222744 0)
(0.0066271 -0.000250414 0)
(0.00751244 -0.00027979 0)
(0.00830984 -0.00024969 0)
(0.00870429 0.000162547 0)
(0.00443207 0.00391823 0)
(-4.02052e-05 1.36303e-05 0)
(1.3119e-06 -3.44461e-05 0)
(0.000238028 -8.63956e-05 0)
(0.000622906 -0.000131946 0)
(0.00113409 -0.000175704 0)
(0.00176386 -0.000222927 0)
(0.00251795 -0.000276488 0)
(0.00340328 -0.000336225 0)
(0.00442022 -0.000399475 0)
(0.00555788 -0.000462219 0)
(0.00679337 -0.00052063 0)
(0.00809422 -0.000572683 0)
(0.00942133 -0.00061848 0)
(0.0107233 -0.000654725 0)
(0.0119048 -0.000645303 0)
(0.0126879 -0.000399747 0)
(0.0124497 0.000879059 0)
(0.00737714 0.00675278 0)
(-4.02501e-05 1.66793e-05 0)
(5.06736e-05 -7.94086e-05 0)
(0.000398773 -0.00018488 0)
(0.000947226 -0.000278627 0)
(0.00166823 -0.000369382 0)
(0.00255181 -0.000467046 0)
(0.00360418 -0.000576965 0)
(0.00483222 -0.000698359 0)
(0.00623315 -0.000825289 0)
(0.00778785 -0.0009487 0)
(0.00945885 -0.00105899 0)
(0.0111912 -0.00114802 0)
(0.0129116 -0.00120717 0)
(0.0145141 -0.0012121 0)
(0.0158114 -0.0010635 0)
(0.0163788 -0.000394529 0)
(0.015475 0.00202012 0)
(0.0103685 0.00977806 0)
(-3.45776e-05 1.17058e-05 0)
(0.000122068 -0.000151283 0)
(0.000590626 -0.000330154 0)
(0.00130645 -0.000491055 0)
(0.00223683 -0.00064773 0)
(0.00336976 -0.000815876 0)
(0.00471083 -0.00100373 0)
(0.00626533 -0.00120921 0)
(0.00802558 -0.00142131 0)
(0.00996235 -0.00162315 0)
(0.0120212 -0.00179541 0)
(0.0141212 -0.00191808 0)
(0.0161497 -0.00196456 0)
(0.0179428 -0.00187393 0)
(0.0192335 -0.00146297 0)
(0.0195274 -0.000191421 0)
(0.0181408 0.00341738 0)
(0.0134262 0.0126335 0)
(-2.47905e-05 -5.99349e-06 0)
(0.00021126 -0.000257084 0)
(0.000807743 -0.000529743 0)
(0.00169241 -0.000777444 0)
(0.00282805 -0.00101969 0)
(0.00420064 -0.00127889 0)
(0.00581404 -0.00156634 0)
(0.00767056 -0.00187768 0)
(0.00975617 -0.00219476 0)
(0.0120304 -0.00248954 0)
(0.0144207 -0.00272826 0)
(0.0168191 -0.00287225 0)
(0.0190747 -0.00286725 0)
(0.0209733 -0.00260382 0)
(0.0221975 -0.00181071 0)
(0.0222603 0.000183804 0)
(0.0206384 0.00492085 0)
(0.0165379 0.0151787 0)
(-1.2264e-05 -4.09726e-05 0)
(0.000313408 -0.000404214 0)
(0.00104266 -0.000791731 0)
(0.00209449 -0.00114629 0)
(0.00342692 -0.00149402 0)
(0.00502363 -0.00186483 0)
(0.00688573 -0.00227293 0)
(0.00901135 -0.00271058 0)
(0.0113793 -0.0031501 0)
(0.0139376 -0.00354866 0)
(0.0165965 -0.003853 0)
(0.0192233 -0.00399898 0)
(0.0216354 -0.0038967 0)
(0.0235846 -0.0033831 0)
(0.0247384 -0.00211058 0)
(0.0246726 0.000663923 0)
(0.0230573 0.00640462 0)
(0.0196784 0.0173623 0)
(1.80843e-06 -9.74941e-05 0)
(0.00042318 -0.00060005 0)
(0.00128643 -0.00112405 0)
(0.00249975 -0.00160543 0)
(0.00401548 -0.00207809 0)
(0.00581443 -0.00258011 0)
(0.00789409 -0.00312837 0)
(0.0102476 -0.00371043 0)
(0.0128467 -0.00428669 0)
(0.0156288 -0.00479595 0)
(0.0184896 -0.00516061 0)
(0.0212778 -0.00528541 0)
(0.02379 -0.00504015 0)
(0.0257645 -0.00421041 0)
(0.0268852 -0.00239492 0)
(0.0268203 0.00116004 0)
(0.0254175 0.00775444 0)
(0.0228063 0.0191438 0)
(1.63997e-05 -0.00017935 0)
(0.000534924 -0.000851463 0)
(0.00152884 -0.00153388 0)
(0.00289318 -0.00216128 0)
(0.0045731 -0.00277696 0)
(0.00654584 -0.00342781 0)
(0.00880451 -0.00413304 0)
(0.0113372 -0.0048743 0)
(0.014109 -0.00559785 0)
(0.0170495 -0.006221 0)
(0.0200448 -0.00663793 0)
(0.0229331 -0.00671869 0)
(0.025504 -0.00629211 0)
(0.0275024 -0.00510091 0)
(0.0286514 -0.00271724 0)
(0.0287182 0.00157309 0)
(0.0276873 0.00886405 0)
(0.0258585 0.0204804 0)
(3.06216e-05 -0.000289573 0)
(0.000642846 -0.00116419 0)
(0.00175872 -0.00202691 0)
(0.003258 -0.00281811 0)
(0.00507696 -0.00359257 0)
(0.0071884 -0.00440674 0)
(0.00958068 -0.00528199 0)
(0.012237 -0.00619307 0)
(0.015118 -0.00707041 0)
(0.0181487 -0.00780762 0)
(0.0212121 -0.00826845 0)
(0.0241459 -0.00828716 0)
(0.0267467 -0.00765489 0)
(0.0287827 -0.00608369 0)
(0.0300291 -0.00314503 0)
(0.0303417 0.00180114 0)
(0.0297954 0.00963475 0)
(0.028748 0.0213248 0)
(4.3722e-05 -0.000430328 0)
(0.000741186 -0.00154209 0)
(0.00196427 -0.00260647 0)
(0.00357615 -0.00357704 0)
(0.00550262 -0.00452268 0)
(0.00771127 -0.00551047 0)
(0.0101856 -0.00656398 0)
(0.012905 -0.00765058 0)
(0.0158279 -0.00868413 0)
(0.0188797 -0.00953369 0)
(0.0219473 -0.0100322 0)
(0.0248782 -0.00998001 0)
(0.0274882 -0.00913645 0)
(0.0295807 -0.00719631 0)
(0.030986 -0.00375112 0)
(0.0316308 0.00174674 0)
(0.0316394 0.0099765 0)
(0.031362 0.0216235 0)
(5.43175e-05 -0.000588444 0)
(0.000817644 -0.00194911 0)
(0.00211947 -0.00321686 0)
(0.00380799 -0.00436337 0)
(0.00579825 -0.00547334 0)
(0.00805258 -0.00662496 0)
(0.0105503 -0.00784433 0)
(0.0132688 -0.00909233 0)
(0.016167 -0.0102679 0)
(0.0191755 -0.0112184 0)
(0.022191 -0.0117502 0)
(0.0250783 -0.0116359 0)
(0.0276797 -0.0106128 0)
(0.029836 -0.00837096 0)
(0.0314254 -0.0045327 0)
(0.0324217 0.00136058 0)
(0.0329672 0.00982805 0)
(0.0333758 0.0213507 0)
(6.38577e-05 -0.000769295 0)
(0.000878312 -0.00240269 0)
(0.00223629 -0.0038855 0)
(0.00397308 -0.00521316 0)
(0.0059923 -0.00648853 0)
(0.00825086 -0.00780217 0)
(0.0107247 -0.00918352 0)
(0.0133901 -0.0105879 0)
(0.0162097 -0.0119009 0)
(0.0191222 -0.0129498 0)
(0.0220397 -0.0135177 0)
(0.0248496 -0.013354 0)
(0.0274253 -0.0121806 0)
(0.0296469 -0.00969003 0)
(0.0314346 -0.00554077 0)
(0.0327948 0.000641181 0)
(0.0338679 0.00923812 0)
(0.0349238 0.0205708 0)
(7.29977e-05 -0.0010038 0)
(0.000922937 -0.00298124 0)
(0.00230981 -0.00472315 0)
(0.00405832 -0.00626176 0)
(0.00605942 -0.00772392 0)
(0.00826421 -0.00921612 0)
(0.0106457 -0.0107734 0)
(0.0131814 -0.0123468 0)
(0.0158404 -0.0138092 0)
(0.0185758 -0.0149693 0)
(0.0213218 -0.0155887 0)
(0.0239968 -0.0153972 0)
(0.0265131 -0.0141066 0)
(0.0287942 -0.0114195 0)
(0.0308005 -0.00703706 0)
(0.0325613 -0.00067008 0)
(0.0342012 0.00793894 0)
(0.0359399 0.0189757 0)
(7.98174e-05 -0.00129888 0)
(0.000934196 -0.00369954 0)
(0.00229895 -0.00574481 0)
(0.00399384 -0.00751914 0)
(0.00589909 -0.00918115 0)
(0.0079605 -0.0108579 0)
(0.0101498 -0.0125936 0)
(0.0124482 -0.0143386 0)
(0.0148356 -0.015957 0)
(0.0172847 -0.0172433 0)
(0.0197588 -0.0179428 0)
(0.0222142 -0.0177728 0)
(0.0246069 -0.0164418 0)
(0.0269049 -0.0136686 0)
(0.0291044 -0.00919782 0)
(0.0312485 -0.00281639 0)
(0.0334386 0.00563018 0)
(0.0358441 0.0162209 0)
(8.13593e-05 -0.0016528 0)
(0.000885837 -0.00454933 0)
(0.00214197 -0.00693229 0)
(0.00367544 -0.00895281 0)
(0.00536319 -0.0108104 0)
(0.00714871 -0.0126583 0)
(0.00900508 -0.0145558 0)
(0.01092 -0.0164588 0)
(0.012888 -0.0182301 0)
(0.0149056 -0.0196591 0)
(0.0169694 -0.0204849 0)
(0.0190763 -0.0204213 0)
(0.0212271 -0.0191819 0)
(0.0234318 -0.0165043 0)
(0.0257171 -0.0121711 0)
(0.0281342 -0.00602758 0)
(0.0307624 0.0020068 0)
(0.0337268 0.0119347 0)
(7.33015e-05 -0.00204206 0)
(0.000739048 -0.0054689 0)
(0.00174909 -0.00819225 0)
(0.00295356 -0.0104394 0)
(0.00424168 -0.012458 0)
(0.00556153 -0.0144336 0)
(0.00689134 -0.0164473 0)
(0.00822795 -0.0184701 0)
(0.00958189 -0.0203755 0)
(0.010974 -0.0219609 0)
(0.0124334 -0.0229729 0)
(0.0139955 -0.0231343 0)
(0.0157015 -0.0221713 0)
(0.017598 -0.0198408 0)
(0.0197375 -0.0159525 0)
(0.0221785 -0.0103871 0)
(0.0249875 -0.00310491 0)
(0.028254 0.00585585 0)
(4.90403e-05 -0.00239557 0)
(0.000439643 -0.00628444 0)
(0.000999921 -0.00927809 0)
(0.00163285 -0.0116759 0)
(0.00226493 -0.0137734 0)
(0.00286036 -0.0157896 0)
(0.00340713 -0.0178339 0)
(0.00391215 -0.0199026 0)
(0.00439993 -0.0218943 0)
(0.00491106 -0.0236311 0)
(0.00550005 -0.0248836 0)
(0.0062322 -0.0253977 0)
(0.00717992 -0.0249212 0)
(0.00841855 -0.0232304 0)
(0.0100218 -0.020152 0)
(0.0120587 -0.01558 0)
(0.0145939 -0.0094838 0)
(0.0177034 -0.00190687 0)
(-2.61626e-06 -0.00254926 0)
(-7.13037e-05 -0.00660836 0)
(-0.000222835 -0.0096547 0)
(-0.000463843 -0.0120255 0)
(-0.000800448 -0.0140423 0)
(-0.00123887 -0.0159474 0)
(-0.00177744 -0.0178764 0)
(-0.00240099 -0.0198577 0)
(-0.00307738 -0.0218275 0)
(-0.00375619 -0.0236489 0)
(-0.00436986 -0.0251343 0)
(-0.00483685 -0.0260684 0)
(-0.00506651 -0.0262324 0)
(-0.00496525 -0.0254269 0)
(-0.00444323 -0.0234925 0)
(-0.00341944 -0.0203246 0)
(-0.00182166 -0.0158823 0)
(0.000423157 -0.0101885 0)
(-6.13322e-05 -0.00230475 0)
(-0.000613935 -0.00599472 0)
(-0.0014921 -0.00874874 0)
(-0.00260617 -0.0108601 0)
(-0.00389294 -0.0126242 0)
(-0.00532976 -0.0142741 0)
(-0.00690422 -0.0159523 0)
(-0.00859913 -0.0177084 0)
(-0.0103842 -0.0195117 0)
(-0.0122116 -0.0212664 0)
(-0.0140146 -0.0228294 0)
(-0.0157098 -0.0240288 0)
(-0.0172014 -0.0246833 0)
(-0.0183877 -0.0246215 0)
(-0.0191687 -0.0236992 0)
(-0.0194527 -0.0218131 0)
(-0.0191555 -0.0189099 0)
(-0.0181976 -0.0149892 0)
(-9.51663e-05 -0.00187548 0)
(-0.000964566 -0.00497933 0)
(-0.00231971 -0.00732137 0)
(-0.00400559 -0.00910626 0)
(-0.00591374 -0.0105793 0)
(-0.00800287 -0.0119482 0)
(-0.0102546 -0.0133479 0)
(-0.0126536 -0.0148367 0)
(-0.0151759 -0.0164051 0)
(-0.0177821 -0.0179883 0)
(-0.0204136 -0.0194797 0)
(-0.022993 -0.0207449 0)
(-0.0254277 -0.0216374 0)
(-0.0276153 -0.0220134 0)
(-0.0294519 -0.0217469 0)
(-0.0308392 -0.0207407 0)
(-0.0316838 -0.0189357 0)
(-0.0319005 -0.0163158 0)
(-0.000107418 -0.00137929 0)
(-0.00113441 -0.0038142 0)
(-0.00274238 -0.00569632 0)
(-0.00473875 -0.00712707 0)
(-0.00698968 -0.00829449 0)
(-0.00944218 -0.009373 0)
(-0.0120748 -0.0104821 0)
(-0.014876 -0.0116804 0)
(-0.0178308 -0.0129718 0)
(-0.0209112 -0.0143155 0)
(-0.0240704 -0.0156356 0)
(-0.0272422 -0.0168319 0)
(-0.0303421 -0.0177907 0)
(-0.0332728 -0.0183968 0)
(-0.0359311 -0.0185446 0)
(-0.0382153 -0.0181477 0)
(-0.0400268 -0.0171468 0)
(-0.0412747 -0.0155162 0)
(-9.87457e-05 -0.000916068 0)
(-0.0011317 -0.00271373 0)
(-0.00278343 -0.00415135 0)
(-0.00484877 -0.00524062 0)
(-0.00718453 -0.00611783 0)
(-0.00973092 -0.00692282 0)
(-0.0124651 -0.00775524 0)
(-0.0153804 -0.0086679 0)
(-0.018471 -0.00967173 0)
(-0.0217212 -0.010743 0)
(-0.0250983 -0.0118306 0)
(-0.0285497 -0.0128632 0)
(-0.0320036 -0.0137572 0)
(-0.0353723 -0.0144252 0)
(-0.0385585 -0.0147834 0)
(-0.0414622 -0.01476 0)
(-0.0439835 -0.0143007 0)
(-0.0460287 -0.0133761 0)
(-7.41736e-05 -0.000541633 0)
(-0.000996781 -0.00179572 0)
(-0.00253193 -0.00283932 0)
(-0.00447902 -0.00362423 0)
(-0.0066959 -0.00424614 0)
(-0.00911934 -0.00481231 0)
(-0.0117265 -0.00540092 0)
(-0.0145152 -0.00605551 0)
(-0.0174882 -0.00678888 0)
(-0.0206411 -0.00758859 0)
(-0.0239547 -0.0084221 0)
(-0.0273915 -0.0092416 0)
(-0.0308944 -0.00998911 0)
(-0.0343894 -0.0106019 0)
(-0.0377899 -0.0110184 0)
(-0.0410031 -0.0111827 0)
(-0.0439337 -0.0110498 0)
(-0.04649 -0.0105916 0)
(-4.072e-05 -0.00027466 0)
(-0.000783193 -0.00109985 0)
(-0.00210072 -0.00181474 0)
(-0.0038062 -0.00234509 0)
(-0.00576471 -0.00275709 0)
(-0.00791271 -0.00312875 0)
(-0.0102287 -0.00351733 0)
(-0.0127143 -0.0039556 0)
(-0.0153788 -0.00445506 0)
(-0.0182269 -0.00501 0)
(-0.0212511 -0.00560103 0)
(-0.0244275 -0.00619806 0)
(-0.0277144 -0.00676347 0)
(-0.0310533 -0.00725551 0)
(-0.0343719 -0.0076318 0)
(-0.0375895 -0.00785268 0)
(-0.0406203 -0.00788423 0)
(-0.0433808 -0.00770302 0)
(-5.61322e-06 -0.00010835 0)
(-0.000543016 -0.000614852 0)
(-0.00159532 -0.00106915 0)
(-0.00299264 -0.00139914 0)
(-0.00461174 -0.00164965 0)
(-0.00639244 -0.00187344 0)
(-0.00831587 -0.00210894 0)
(-0.0103867 -0.00237841 0)
(-0.0126181 -0.00269049 0)
(-0.0150206 -0.00304304 0)
(-0.0175955 -0.0034254 0)
(-0.0203302 -0.00382009 0)
(-0.0231966 -0.00420465 0)
(-0.0261518 -0.00455353 0)
(-0.0291395 -0.00484015 0)
(-0.0320939 -0.00503887 0)
(-0.0349428 -0.00512679 0)
(-0.0376154 -0.00508678 0)
(2.44595e-05 -2.21035e-05 0)
(-0.000318771 -0.000304006 0)
(-0.00109786 -0.000562692 0)
(-0.00216284 -0.000745262 0)
(-0.00340697 -0.000880328 0)
(-0.00477756 -0.000999809 0)
(-0.00625963 -0.00112654 0)
(-0.00785956 -0.00127376 0)
(-0.00959173 -0.00144695 0)
(-0.0114694 -0.00164557 0)
(-0.0134989 -0.00186439 0)
(-0.0156758 -0.00209434 0)
(-0.0179834 -0.00232346 0)
(-0.0203925 -0.00253786 0)
(-0.0228624 -0.00272275 0)
(-0.0253437 -0.00286349 0)
(-0.02778 -0.00294656 0)
(-0.0301159 -0.00296119 0)
(4.33703e-05 9.66071e-06 0)
(-0.000140597 -0.000123799 0)
(-0.000662704 -0.000246666 0)
(-0.00139846 -0.000330232 0)
(-0.00226345 -0.000390273 0)
(-0.00321657 -0.000442868 0)
(-0.00424747 -0.000499223 0)
(-0.00536272 -0.00056579 0)
(-0.00657545 -0.00064535 0)
(-0.0078984 -0.000737921 0)
(-0.00933955 -0.000841356 0)
(-0.0108994 -0.000951749 0)
(-0.0125695 -0.00106381 0)
(-0.0143322 -0.00117127 0)
(-0.0161611 -0.00126731 0)
(-0.0180225 -0.00134502 0)
(-0.019877 -0.00139776 0)
(-0.0216851 -0.0014197 0)
(4.52014e-05 1.23128e-05 0)
(-2.67229e-05 -3.43399e-05 0)
(-0.000319306 -7.54679e-05 0)
(-0.000743985 -0.000102081 0)
(-0.00124521 -0.000120482 0)
(-0.00179676 -0.000136425 0)
(-0.00239292 -0.00015377 0)
(-0.00303895 -0.000174711 0)
(-0.00374431 -0.000200223 0)
(-0.00451847 -0.00023039 0)
(-0.00536813 -0.000264607 0)
(-0.00629558 -0.000301701 0)
(-0.00729778 -0.000340037 0)
(-0.00836598 -0.000377636 0)
(-0.00948599 -0.000412301 0)
(-0.0106388 -0.000441735 0)
(-0.0118012 -0.00046355 0)
(-0.0129496 -0.000475051 0)
(2.45739e-05 4.93178e-06 0)
(1.48019e-05 -1.67364e-06 0)
(-7.77197e-05 -5.02757e-06 0)
(-0.000216203 -6.97539e-06 0)
(-0.000379912 -8.18086e-06 0)
(-0.000559485 -9.20442e-06 0)
(-0.000753273 -1.03815e-05 0)
(-0.000963596 -1.18979e-05 0)
(-0.0011943 -1.38408e-05 0)
(-0.00144925 -1.62298e-05 0)
(-0.00173144 -1.90315e-05 0)
(-0.00204238 -2.21694e-05 0)
(-0.00238175 -2.55282e-05 0)
(-0.00274728 -2.89617e-05 0)
(-0.00313473 -3.22997e-05 0)
(-0.00353814 -3.5372e-05 0)
(-0.00394965 -3.79068e-05 0)
(-0.00436091 -3.93293e-05 0)
(2.79006e-05 -6.4765e-05 1.75223e-23)
(0.000183461 -0.000145884 -2.26598e-23)
(0.000430796 -0.000190423 0)
(0.000728123 -0.000208493 0)
(0.00102856 -0.00020945 0)
(0.0012998 -0.000199449 1.93819e-23)
(0.0015197 -0.00018292 0)
(0.00167212 -0.000163101 0)
(0.00174509 -0.000142223 0)
(0.00172955 -0.000121664 0)
(0.00161833 -0.000102038 -4.34536e-24)
(0.00140505 -8.34186e-05 0)
(0.00108298 -6.53916e-05 0)
(0.000644215 -4.71364e-05 0)
(7.89929e-05 -2.75402e-05 0)
(-0.000624831 -5.31435e-06 2.20571e-23)
(-0.00148193 2.08961e-05 0)
(-0.00250933 5.24043e-05 0)
(-0.00372587 9.03858e-05 0)
(-0.00515143 0.000135819 0)
(-0.00680586 0.000189454 0)
(-0.0087079 0.000251807 0)
(-0.0108739 0.000323138 0)
(-0.0133164 0.000403429 8.97961e-23)
(-0.0160432 0.00049233 -9.96722e-23)
(-0.0190558 0.000589088 1.09428e-22)
(-0.0223481 0.000692467 1.18837e-22)
(-0.0259054 0.000800677 0)
(-0.0297038 0.000911319 0)
(-0.0337089 0.00102138 -1.42177e-22)
(-0.037876 0.00112724 -1.47241e-22)
(-0.0421505 0.0012248 0)
(-0.0464682 0.00130958 0)
(-0.0507567 0.00137696 -1.49312e-22)
(-0.0549375 0.00142242 0)
(-0.0589276 0.00144185 0)
(-0.0626424 0.00143185 1.24907e-22)
(-0.0659982 0.00139002 0)
(-0.0689151 0.00131528 9.09783e-23)
(-0.0713193 0.00120793 1.37037e-22)
(-0.0731459 0.00106951 0)
(-0.0743411 0.000902257 0)
(-0.0748637 0.000709515 0)
(-0.074682 0.000499287 0)
(-0.0737803 0.000274878 0)
(-0.0721632 4.2764e-05 -2.62298e-22)
(-0.0698461 -0.000189795 -3.42929e-22)
(-0.0668574 -0.000416309 -4.24638e-22)
(-0.0632368 -0.000631118 0)
(-0.059034 -0.000829442 5.86105e-22)
(-0.0543064 -0.00100751 0)
(-0.0491168 -0.00116264 -7.36149e-22)
(-0.0435317 -0.00129319 -8.03647e-22)
(-0.0376191 -0.00139852 0)
(-0.031447 -0.00147881 0)
(-0.0250822 -0.00153485 0)
(-0.0185891 -0.00156785 -9.96443e-22)
(-0.0120294 -0.00157913 0)
(-0.00546307 -0.00156963 0)
(0.00105204 -0.00153927 0)
(0.00746266 -0.00148816 0)
(0.0137147 -0.00141759 0)
(0.0197506 -0.00132947 0)
(0.0255135 -0.00122484 0)
(0.0309467 -0.00110437 0)
(0.0359933 -0.00096889 7.1782e-22)
(0.0405964 -0.000819698 0)
(0.0447006 -0.000658682 0)
(0.0482533 -0.000488413 -4.65021e-22)
(0.0512076 -0.000312164 -3.7435e-22)
(0.0535237 -0.000133845 0)
(0.055172 4.21134e-05 1.91641e-22)
(0.0561357 0.000210687 -1.02384e-22)
(0.0564101 0.000366596 0)
(0.0560093 0.000507584 -6.53059e-23)
(0.0549648 0.000628242 0)
(0.0533222 0.000725849 0)
(0.0511418 0.000798881 2.7327e-22)
(0.0484973 0.000846725 0)
(0.0454721 0.000869869 -3.74886e-22)
(0.0421564 0.000869921 0)
(0.0386432 0.000849434 4.45013e-22)
(0.0350243 0.00081165 4.68824e-22)
(0.0313863 0.000760215 4.85779e-22)
(0.0278078 0.000698892 9.93035e-22)
(0.0243565 0.000631297 -1.00352e-21)
(0.0210876 0.00056069 0)
(0.0180432 0.000489827 0)
(0.0152522 0.000420895 0)
(0.0127315 0.000355518 -9.65787e-22)
(0.0104868 0.000294828 -9.43581e-22)
(0.0085146 0.000239568 9.18769e-22)
(0.00680337 0.000190206 0)
(0.00533529 0.000147032 -8.65336e-22)
(0.00408752 0.000110211 -8.38405e-22)
(0.00303365 7.98051e-05 -8.1225e-22)
(0.00214495 5.57505e-05 0)
(0.00139175 3.7828e-05 0)
(0.000744835 2.5646e-05 0)
(0.000176904 1.86191e-05 -7.24085e-22)
(-0.00033709 1.57812e-05 0)
(-0.000818078 1.66224e-05 0)
(-0.00128218 1.99653e-05 6.77751e-22)
(-0.00174143 2.4887e-05 0)
(-0.00220315 3.05805e-05 0)
(-0.0026706 3.63273e-05 6.46439e-22)
(-0.0031436 4.15476e-05 0)
(-0.00361926 4.58185e-05 0)
(-0.00409272 4.88671e-05 -6.22974e-22)
(-0.00455798 5.05536e-05 -6.15655e-22)
(-0.00500848 5.08499e-05 0)
(-0.00543774 4.9817e-05 6.00593e-22)
(-0.0058398 4.75833e-05 0)
(-0.00620949 4.43245e-05 -5.84176e-22)
(-0.00654275 4.02451e-05 0)
(-0.00683663 3.55628e-05 -5.65975e-22)
(-0.00708942 3.04946e-05 -5.5621e-22)
(-0.00730058 2.52454e-05 0)
(-0.00747061 1.99994e-05 0)
(-0.00760096 1.49134e-05 0)
(-0.00769385 1.01098e-05 0)
(-0.00775208 5.6625e-06 0)
(-0.00777905 1.64844e-06 0)
(-0.00777808 -1.60557e-06 0)
(-0.00775274 -4.51469e-06 -4.69833e-22)
(-0.00770684 -6.9593e-06 4.59086e-22)
(-0.00764385 -8.91427e-06 0)
(-0.00756706 -1.04139e-05 0)
(-0.00747954 -1.15023e-05 0)
(-0.00738409 -1.22263e-05 0)
(-0.00728318 -1.26343e-05 8.18659e-22)
(-0.00717899 -1.27741e-05 0)
(-0.00707337 -1.2691e-05 -7.83345e-22)
(-0.00696789 -1.24274e-05 7.6669e-22)
(-0.00686386 -1.20215e-05 0)
(-0.00676233 -1.15071e-05 0)
(-0.00666412 -1.0914e-05 0)
(-0.00656987 -1.02671e-05 -7.06299e-22)
(-0.00648004 -9.58791e-06 -6.92612e-22)
(-0.00639496 -8.89376e-06 0)
(-0.0063148 -8.19887e-06 -6.66686e-22)
(-0.00623967 -7.51449e-06 -6.54375e-22)
(-0.00616957 -6.84934e-06 6.42452e-22)
(-0.00610442 -6.20998e-06 0)
(-0.00604412 -5.60123e-06 0)
(-0.00598849 -5.0264e-06 6.08673e-22)
(-0.00593733 -4.48763e-06 0)
(-0.00589043 -3.98605e-06 0)
(-0.00584753 -3.52198e-06 0)
(-0.0058084 -3.0951e-06 0)
(-0.00577277 -2.70457e-06 -5.5726e-22)
(-0.00574038 -2.34909e-06 -5.47489e-22)
(-0.00571097 -2.02705e-06 0)
(-0.0056843 -1.73661e-06 -5.28307e-22)
(-0.00566013 -1.47571e-06 0)
(-0.00563822 -1.24218e-06 0)
(-0.00561836 -1.03374e-06 -5.00214e-22)
(-0.00560034 -8.4809e-07 0)
(-0.00558398 -6.8286e-07 -4.81803e-22)
(-0.0055691 -5.35638e-07 0)
(-0.00555555 -4.03843e-07 0)
(-0.00554321 -2.84495e-07 -4.5449e-22)
(-0.00553196 -1.73661e-07 0)
(-0.00552174 -6.55635e-08 -4.36405e-22)
(-0.00551257 4.87986e-08 0)
(-0.00550454 1.82842e-07 0)
(-0.00549792 3.55289e-07 0)
(-0.00549316 5.89213e-07 4.00273e-22)
(-0.00549096 9.04812e-07 0)
(-0.00549213 1.29945e-06 -3.81992e-22)
(-0.00549746 1.71107e-06 0)
(-0.00550728 2.10712e-06 0)
(-0.00552058 2.58083e-06 0)
(-0.00553431 2.69094e-06 0)
(-0.00554245 2.45304e-06 0)
(-0.00553478 1.07206e-06 0)
(-0.0054941 -2.43973e-06 0)
(-0.00540251 -9.33023e-06 5.96012e-22)
(-0.0052458 -1.19404e-05 0)
(-0.00465753 -9.52282e-05 0)
(4.13877e-05 -0.000355233 -5.81563e-23)
(0.000291144 -0.000801804 7.59043e-23)
(0.000639439 -0.00102914 0)
(0.00101398 -0.00108455 -5.02205e-23)
(0.00133743 -0.00100929 0)
(0.00155124 -0.000836616 -2.0671e-23)
(0.00160975 -0.000592501 4.08053e-23)
(0.00147502 -0.000296383 3.59942e-23)
(0.00111445 3.77377e-05 0)
(0.000499276 0.000400705 2.4003e-23)
(-0.000397177 0.000787483 4.65453e-24)
(-0.00160097 0.00119674 0)
(-0.00313903 0.00163049 0)
(-0.0050405 0.00209348 0)
(-0.00733766 0.00259235 0)
(-0.0100663 0.00313457 -2.32746e-23)
(-0.0132656 0.00372727 0)
(-0.0169766 0.00437603 5.73134e-23)
(-0.0212406 0.0050838 0)
(-0.0260967 0.00585009 0)
(-0.0315782 0.00667042 -1.03111e-22)
(-0.0377095 0.00753608 0)
(-0.0445026 0.00843402 1.37785e-22)
(-0.0519537 0.00934695 -9.0674e-23)
(-0.0600398 0.0102535 9.98717e-23)
(-0.068717 0.0111285 -1.08775e-22)
(-0.0779177 0.0119438 -1.17172e-22)
(-0.0875507 0.0126686 0)
(-0.0975012 0.0132711 0)
(-0.107633 0.0137195 1.36906e-22)
(-0.11779 0.0139839 -1.26821e-22)
(-0.127804 0.0140383 0)
(-0.137495 0.0138614 0)
(-0.146682 0.0134391 1.40326e-22)
(-0.155185 0.0127648 0)
(-0.162835 0.0118403 0)
(-0.169474 0.0106757 -1.16384e-22)
(-0.174964 0.00928958 0)
(-0.179188 0.00770735 1.02001e-22)
(-0.182054 0.00596007 -1.27831e-22)
(-0.183498 0.00408234 0)
(-0.183479 0.00211248 0)
(-0.181977 9.37907e-05 1.69536e-23)
(-0.179015 -0.00192938 1.46532e-22)
(-0.174631 -0.0039167 2.86241e-22)
(-0.168881 -0.00583061 -1.85143e-22)
(-0.161839 -0.0076384 3.27678e-22)
(-0.153594 -0.0093127 1.15716e-21)
(-0.144246 -0.0108317 -9.1105e-22)
(-0.133903 -0.0121791 -5.71375e-22)
(-0.12268 -0.0133445 0)
(-0.110693 -0.0143227 7.29758e-22)
(-0.0980607 -0.0151134 -7.32664e-22)
(-0.0848983 -0.0157205 0)
(-0.071319 -0.016151 0)
(-0.057431 -0.0164142 0)
(-0.0433377 -0.0165203 1.04048e-21)
(-0.0291373 -0.0164795 0)
(-0.0149242 -0.016301 -2.13804e-21)
(-0.000791766 -0.0159916 0)
(0.0131717 -0.0155559 -2.09621e-21)
(0.0268791 -0.0149951 0)
(0.0402316 -0.0143121 1.87438e-21)
(0.05313 -0.0135087 0)
(0.0654726 -0.0125861 -1.58911e-21)
(0.0771531 -0.0115459 6.8687e-22)
(0.0880608 -0.0103916 0)
(0.0980824 -0.00912964 1.07983e-21)
(0.107104 -0.00777035 4.71755e-22)
(0.115014 -0.00632849 3.78186e-22)
(0.121707 -0.00482367 0)
(0.127088 -0.00328034 1.55541e-22)
(0.131079 -0.00172747 1.02695e-22)
(0.133621 -0.00019816 0)
(0.134683 0.00127308 6.54511e-23)
(0.134259 0.00265048 -3.04423e-22)
(0.132387 0.00390089 0)
(0.129137 0.00499618 -2.73906e-22)
(0.124613 0.00591331 0)
(0.118955 0.00663565 1.13534e-21)
(0.11233 0.0071545 0)
(0.104927 0.00746978 -1.35066e-21)
(0.0969509 0.00758992 -4.79657e-22)
(0.0886135 0.00753102 4.85542e-22)
(0.0801208 0.00731543 9.94824e-22)
(0.0716664 0.00696989 -1.00921e-21)
(0.0634227 0.00652344 0)
(0.0555349 0.00600537 0)
(0.0481177 0.00544354 0)
(0.0412535 0.0048631 3.07307e-21)
(0.0349932 0.0042857 1.02106e-21)
(0.0293588 0.00372929 -1.00031e-21)
(0.0243465 0.00320813 0)
(0.0199307 0.00273305 -9.20373e-22)
(0.0160689 0.00231169 9.27015e-22)
(0.0127052 0.00194876 9.01867e-22)
(0.00977577 0.00164608 0)
(0.00721226 0.00140283 0)
(0.00494632 0.00121568 0)
(0.00291305 0.00107913 8.14478e-22)
(0.00105381 0.000985748 0)
(-0.000681145 0.00092773 -1.54712e-21)
(-0.00233146 0.000895872 -2.28249e-21)
(-0.00392605 0.00088141 1.48979e-21)
(-0.00548306 0.000876536 0)
(-0.00701129 0.00087454 7.16668e-22)
(-0.00851153 0.000870051 0)
(-0.00997833 0.000859167 1.40859e-21)
(-0.0114019 0.000839417 -6.91299e-22)
(-0.0127697 0.000809613 -6.83541e-22)
(-0.0140684 0.000769641 0)
(-0.0152849 0.000720234 -2.01699e-21)
(-0.0164075 0.000662741 1.32494e-21)
(-0.0174266 0.00059891 6.55971e-22)
(-0.0183351 0.000530708 0)
(-0.0191288 0.000460149 6.35603e-22)
(-0.0198062 0.000389172 1.87115e-21)
(-0.0203685 0.000319543 0)
(-0.0208192 0.000252781 1.20199e-21)
(-0.0211639 0.00019012 1.17886e-21)
(-0.0214097 0.000132494 1.15533e-21)
(-0.021565 8.05248e-05 0)
(-0.0216388 3.46007e-05 0)
(-0.0216407 -4.87932e-06 0)
(-0.0215803 -3.84149e-05 -5.30115e-22)
(-0.0214672 -6.61365e-05 -5.18146e-22)
(-0.0213102 -8.83721e-05 0)
(-0.0211179 -0.000105576 -9.91457e-22)
(-0.020898 -0.000118261 -9.69739e-22)
(-0.0206577 -0.000126962 0)
(-0.020403 -0.000132217 -9.27494e-22)
(-0.0201395 -0.000134542 -1.8174e-21)
(-0.0198719 -0.000134426 8.88919e-22)
(-0.0196041 -0.000132317 8.7244e-22)
(-0.0193394 -0.00012862 0)
(-0.0190805 -0.000123691 0)
(-0.0188295 -0.000117844 0)
(-0.018588 -0.000111345 8.04711e-22)
(-0.0183573 -0.000104421 -7.91124e-22)
(-0.0181383 -9.72609e-05 -1.55189e-21)
(-0.0179314 -9.00201e-05 7.61344e-22)
(-0.017737 -8.2824e-05 -7.48969e-22)
(-0.0175552 -7.57723e-05 -7.34771e-22)
(-0.0173858 -6.89427e-05 0)
(-0.0172285 -6.23939e-05 0)
(-0.0170831 -5.61689e-05 6.98433e-22)
(-0.016949 -5.02976e-05 0)
(-0.0168258 -4.47986e-05 0)
(-0.0167127 -3.96816e-05 -1.32662e-21)
(-0.0166093 -3.49485e-05 0)
(-0.0165149 -3.05952e-05 -6.41383e-22)
(-0.0164288 -2.66123e-05 6.30131e-22)
(-0.0163504 -2.29867e-05 0)
(-0.0162791 -1.97018e-05 -6.09153e-22)
(-0.0162142 -1.67389e-05 0)
(-0.0161553 -1.40773e-05 0)
(-0.0161016 -1.16949e-05 5.77616e-22)
(-0.0160528 -9.569e-06 -1.1348e-21)
(-0.0160083 -7.67605e-06 5.57075e-22)
(-0.0159677 -5.99162e-06 0)
(-0.0159305 -4.48936e-06 0)
(-0.0158964 -3.13853e-06 -5.26571e-22)
(-0.0158652 -1.89902e-06 0)
(-0.0158366 -7.13292e-07 -5.06233e-22)
(-0.0158106 5.0506e-07 0)
(-0.0157875 1.88256e-06 0)
(-0.0157677 3.5899e-06 0)
(-0.0157523 5.82419e-06 -4.65468e-22)
(-0.0157427 8.74672e-06 0)
(-0.0157406 1.2355e-05 4.44771e-22)
(-0.015747 1.62872e-05 0)
(-0.0157618 1.97224e-05 0)
(-0.0157813 2.13303e-05 -8.24409e-22)
(-0.0157963 1.8468e-05 8.01322e-22)
(-0.0157904 8.25237e-06 0)
(-0.0157365 -1.40039e-05 0)
(-0.0155932 -5.40513e-05 0)
(-0.0153184 -0.000119767 -2.09668e-21)
(-0.0148556 -0.000234 0)
(-0.0137146 -0.000498076 1.28124e-21)
(3.36937e-05 -0.000660834 -7.05048e-24)
(0.000204234 -0.00140386 -1.11899e-22)
(0.000380601 -0.0016877 0)
(0.000482334 -0.00161931 1.07639e-22)
(0.000428167 -0.00127872 0)
(0.000152048 -0.000725841 0)
(-0.000402302 -6.00336e-06 7.15882e-24)
(-0.00128596 0.000847074 -3.59693e-23)
(-0.00254732 0.00180932 -3.84796e-23)
(-0.00423297 0.00286486 -2.38129e-23)
(-0.00638885 0.00400525 0)
(-0.00906153 0.00522881 0)
(-0.0122991 0.00653971 1.21138e-23)
(-0.016152 0.00794662 7.68942e-24)
(-0.0206728 0.00946072 1.04308e-23)
(-0.0259158 0.0110931 0)
(-0.0319345 0.0128518 5.20324e-23)
(-0.0387792 0.0147389 -5.50325e-23)
(-0.0464925 0.0167479 0)
(-0.0551048 0.0188616 1.29905e-22)
(-0.0646285 0.0210517 9.72243e-23)
(-0.0750536 0.0232777 -1.92967e-22)
(-0.0863424 0.0254881 -1.28248e-22)
(-0.0984262 0.0276214 0)
(-0.111203 0.0296082 3.02266e-22)
(-0.124537 0.0313737 3.41194e-22)
(-0.138261 0.0328411 0)
(-0.152179 0.0339358 4.18794e-22)
(-0.166072 0.0345891 0)
(-0.179709 0.0347427 4.89405e-22)
(-0.19285 0.0343526 2.40331e-22)
(-0.20526 0.0333915 0)
(-0.216714 0.0318509 0)
(-0.227005 0.0297418 0)
(-0.235951 0.0270931 0)
(-0.243401 0.0239508 0)
(-0.249232 0.0203748 0)
(-0.253354 0.016436 4.93505e-22)
(-0.255712 0.0122128 -6.12506e-22)
(-0.256278 0.00778756 0)
(-0.255054 0.00324525 0)
(-0.252061 -0.0013273 0)
(-0.247369 -0.00584303 -1.07106e-22)
(-0.241042 -0.0102296 -1.35449e-22)
(-0.233162 -0.0144228 -4.25296e-22)
(-0.223824 -0.0183679 7.03207e-22)
(-0.213131 -0.0220189 4.46583e-22)
(-0.201198 -0.0253397 -6.98631e-22)
(-0.188143 -0.0283035 9.85641e-23)
(-0.174088 -0.0308932 -9.09211e-22)
(-0.159156 -0.0331008 0)
(-0.143471 -0.0349268 -1.2146e-21)
(-0.127153 -0.0363792 9.37984e-23)
(-0.110318 -0.0374718 0)
(-0.0930759 -0.0382231 0)
(-0.075532 -0.038654 1.73592e-21)
(-0.0577841 -0.0387861 0)
(-0.0399247 -0.0386401 0)
(-0.0220422 -0.0382339 -1.88596e-21)
(-0.00422424 -0.0375815 -4.01283e-21)
(0.013445 -0.0366918 2.04909e-21)
(0.0308892 -0.035561 0)
(0.0480087 -0.034188 -1.81745e-21)
(0.0647011 -0.0325703 0)
(0.0808588 -0.0307039 -1.38737e-21)
(0.0963656 -0.0285857 -1.37033e-21)
(0.111097 -0.0262152 2.27437e-21)
(0.12492 -0.023597 9.02651e-22)
(0.137696 -0.0207425 0)
(0.149282 -0.0176713 -1.23318e-21)
(0.159536 -0.0144131 0)
(0.168317 -0.0110079 -8.71036e-22)
(0.175496 -0.00750574 -2.10583e-22)
(0.180957 -0.00396666 1.05544e-22)
(0.184606 -0.000460242 -4.02605e-22)
(0.186371 0.00293596 9.61232e-22)
(0.186216 0.00614173 0)
(0.184153 0.00908144 0)
(0.180239 0.0116863 -1.31982e-21)
(0.174577 0.0138972 -2.18402e-21)
(0.167322 0.0156686 0)
(0.158671 0.0169725 8.35959e-22)
(0.148862 0.0178005 0)
(0.138162 0.0181648 -2.78027e-21)
(0.126855 0.0180969 9.64596e-24)
(0.11523 0.0176455 1.65646e-25)
(0.103563 0.0168715 1.94329e-21)
(0.0921053 0.015844 0)
(0.0810733 0.0146345 -1.93501e-21)
(0.0706397 0.0133127 -2.49572e-23)
(0.06093 0.0119426 0)
(0.0520227 0.0105803 0)
(0.0439516 0.00927248 0)
(0.0367116 0.00805603 1.82039e-21)
(0.030265 0.00695799 0)
(0.0245489 0.005996 0)
(0.0194834 0.00517878 0)
(0.0149786 0.00450681 0)
(0.0109421 0.00397329 0)
(0.00728495 0.00356538 1.57471e-21)
(0.00392605 0.00326563 0)
(0.000796375 0.00305398 1.54105e-21)
(-0.00215901 0.00290873 1.51285e-21)
(-0.00498122 0.00280839 -1.48377e-21)
(-0.00769576 0.00273367 0)
(-0.0103156 0.0026683 -1.43556e-21)
(-0.0128428 0.00259936 0)