/*--------------------------------*- C++ -*----------------------------------*\
  =========                 |
  \\      /  F ield         | OpenFOAM: The Open Source CFD Toolbox
   \\    /   O peration     | Website:  https://openfoam.org
    \\  /    A nd           | Version:  8
     \\/     M anipulation  |
\*---------------------------------------------------------------------------*/
FoamFile
{
    version     2.0;
    format      ascii;
    class       volScalarField;
    location    "0.4";
    object      p;
}
// * * * * * * * * * * * * * * * * * * * * * * * * * * * * * * * * * * * * * //

dimensions      [0 2 -2 0 0 0 0];

internalField   nonuniform List<scalar> 
12225
(
-0.0186752
-0.018632
-0.0186093
-0.0186054
-0.0186166
-0.0186398
-0.0186771
-0.018737
-0.0188339
-0.0189869
-0.0192177
-0.0195473
-0.0199951
-0.0205829
-0.0213493
-0.0223885
-0.0240051
-0.0278043
-0.0186771
-0.0186383
-0.0186185
-0.0186169
-0.0186314
-0.0186599
-0.0187051
-0.0187752
-0.0188841
-0.0190496
-0.0192917
-0.0196294
-0.0200803
-0.0206635
-0.0214103
-0.022392
-0.0237722
-0.0263984
-0.0186808
-0.0186459
-0.0186292
-0.0186303
-0.0186489
-0.0186837
-0.018738
-0.01882
-0.0189425
-0.0191218
-0.0193759
-0.0197213
-0.0201728
-0.0207449
-0.0214575
-0.0223498
-0.023444
-0.0251417
-0.0186859
-0.0186532
-0.0186391
-0.018643
-0.0186655
-0.0187065
-0.0187695
-0.0188622
-0.0189967
-0.0191877
-0.019451
-0.0198009
-0.0202485
-0.020802
-0.021468
-0.0222543
-0.0231115
-0.0242241
-0.0186919
-0.0186603
-0.0186481
-0.0186547
-0.0186812
-0.0187281
-0.018799
-0.0189013
-0.019046
-0.0192465
-0.0195166
-0.0198681
-0.0203081
-0.0208382
-0.0214516
-0.0221322
-0.0228061
-0.0235488
-0.0186984
-0.0186669
-0.0186561
-0.0186653
-0.0186957
-0.0187482
-0.0188265
-0.0189375
-0.0190912
-0.0192995
-0.0195745
-0.0199254
-0.0203557
-0.0208604
-0.021422
-0.0220084
-0.0225431
-0.0230498
-0.0187047
-0.0186726
-0.0186627
-0.0186744
-0.0187085
-0.0187664
-0.0188515
-0.0189702
-0.0191316
-0.0193463
-0.0196248
-0.0199741
-0.0203942
-0.0208745
-0.0213901
-0.0219001
-0.0223357
-0.0227002
-0.0187102
-0.018677
-0.0186675
-0.0186814
-0.0187191
-0.0187819
-0.0188731
-0.0189986
-0.0191666
-0.0193866
-0.0196677
-0.020015
-0.0204258
-0.0208854
-0.0213643
-0.0218187
-0.0221911
-0.02248
-0.0187139
-0.0186792
-0.0186698
-0.0186856
-0.0187265
-0.0187937
-0.0188904
-0.0190218
-0.0191953
-0.0194198
-0.0197031
-0.020049
-0.0204527
-0.0208969
-0.0213504
-0.0217699
-0.0221095
-0.0223676
-0.0187149
-0.0186785
-0.0186687
-0.0186862
-0.0187298
-0.0188009
-0.0189023
-0.0190386
-0.0192169
-0.0194452
-0.0197307
-0.0200761
-0.0204756
-0.0209108
-0.0213502
-0.0217536
-0.0220841
-0.0223404
-0.0187122
-0.0186738
-0.0186634
-0.0186821
-0.018728
-0.0188023
-0.0189074
-0.0190479
-0.0192299
-0.0194614
-0.019749
-0.020095
-0.0204932
-0.0209253
-0.021361
-0.0217632
-0.0221015
-0.0223735
-0.0187051
-0.018665
-0.0186538
-0.0186732
-0.0187206
-0.018797
-0.0189048
-0.0190479
-0.0192326
-0.0194663
-0.0197556
-0.0201028
-0.0205017
-0.0209349
-0.0213736
-0.021784
-0.0221386
-0.0224325
-0.0186926
-0.0186515
-0.0186392
-0.018659
-0.0187074
-0.0187852
-0.0188946
-0.0190396
-0.019226
-0.0194612
-0.0197517
-0.0200999
-0.0205002
-0.0209362
-0.0213813
-0.0218041
-0.022179
-0.0224961
-0.0186697
-0.0186285
-0.0186149
-0.0186344
-0.018683
-0.0187611
-0.0188709
-0.0190161
-0.0192027
-0.0194377
-0.0197277
-0.0200753
-0.020476
-0.020915
-0.0213679
-0.0218058
-0.0222031
-0.0225454
-0.0186307
-0.0185902
-0.0185753
-0.0185938
-0.0186411
-0.0187174
-0.0188247
-0.018967
-0.01915
-0.0193806
-0.0196655
-0.0200078
-0.0204038
-0.0208408
-0.0212971
-0.0217455
-0.0221595
-0.0225206
-0.018566
-0.0185281
-0.0185128
-0.0185291
-0.0185727
-0.0186433
-0.0187432
-0.0188762
-0.0190482
-0.0192658
-0.0195356
-0.0198607
-0.0202388
-0.0206592
-0.0211027
-0.021544
-0.0219555
-0.0223151
-0.0184628
-0.0184306
-0.0184167
-0.0184295
-0.0184654
-0.0185242
-0.0186082
-0.0187213
-0.018869
-0.0190576
-0.019293
-0.0195783
-0.0199118
-0.0202847
-0.0206806
-0.0210767
-0.0214459
-0.0217634
-0.0183052
-0.0182839
-0.0182744
-0.0182821
-0.018305
-0.018343
-0.0183983
-0.0184748
-0.0185772
-0.0187109
-0.0188806
-0.0190887
-0.0193338
-0.0196087
-0.0199004
-0.0201896
-0.0204525
-0.0206649
-0.018081
-0.0180769
-0.0180747
-0.0180754
-0.0180786
-0.0180847
-0.0180957
-0.0181146
-0.0181447
-0.0181898
-0.0182525
-0.0183336
-0.0184314
-0.0185401
-0.01865
-0.0187477
-0.0188148
-0.0188318
-0.0178617
-0.0178763
-0.017882
-0.0178758
-0.0178601
-0.0178362
-0.0178055
-0.0177702
-0.0177322
-0.0176934
-0.0176545
-0.0176145
-0.0175703
-0.0175165
-0.0174451
-0.0173461
-0.0172064
-0.0170123
-0.0177099
-0.0177401
-0.0177526
-0.0177416
-0.0177122
-0.0176662
-0.0176048
-0.0175291
-0.0174404
-0.0173391
-0.0172249
-0.0170961
-0.0169496
-0.0167804
-0.0165824
-0.0163479
-0.0160676
-0.0157326
-0.0176088
-0.0176512
-0.0176684
-0.0176535
-0.0176137
-0.0175511
-0.0174664
-0.0173601
-0.0172325
-0.0170833
-0.0169115
-0.016715
-0.0164908
-0.0162347
-0.0159419
-0.0156068
-0.0152226
-0.0147834
-0.0175533
-0.0176037
-0.0176236
-0.0176061
-0.0175593
-0.0174851
-0.0173838
-0.0172554
-0.0170995
-0.0169151
-0.0167007
-0.016454
-0.0161721
-0.0158516
-0.0154888
-0.01508
-0.0146206
-0.0141066
-0.0175334
-0.0175881
-0.0176094
-0.0175909
-0.0175402
-0.0174588
-0.0173467
-0.0172034
-0.017028
-0.016819
-0.0165744
-0.0162917
-0.0159682
-0.0156009
-0.0151871
-0.0147244
-0.0142101
-0.0136417
-0.0175376
-0.017594
-0.0176165
-0.0175989
-0.017547
-0.0174619
-0.0173434
-0.0171909
-0.0170031
-0.016778
-0.0165133
-0.0162062
-0.015854
-0.015454
-0.015004
-0.0145025
-0.0139481
-0.0133399
-0.0175549
-0.0176122
-0.0176369
-0.0176218
-0.0175709
-0.0174846
-0.0173631
-0.0172057
-0.0170108
-0.0167763
-0.0164993
-0.0161769
-0.0158062
-0.0153844
-0.0149098
-0.0143812
-0.0137982
-0.0131609
-0.0175766
-0.017636
-0.0176646
-0.0176537
-0.017605
-0.0175194
-0.0173972
-0.017238
-0.0170401
-0.016801
-0.0165176
-0.0161867
-0.0158051
-0.0153701
-0.0148796
-0.0143328
-0.0137297
-0.0130714
-0.0175968
-0.0176615
-0.0176967
-0.017691
-0.0176454
-0.0175614
-0.0174402
-0.0172814
-0.0170832
-0.0168432
-0.0165578
-0.0162235
-0.0158368
-0.0153947
-0.014895
-0.0143367
-0.0137198
-0.0130461
-0.0176116
-0.0176864
-0.0177308
-0.0177311
-0.0176889
-0.0176072
-0.017488
-0.017331
-0.0171347
-0.0168962
-0.016612
-0.016278
-0.0158904
-0.0154459
-0.0149418
-0.0143769
-0.013751
-0.0130662
-0.0176192
-0.017706
-0.017759
-0.0177643
-0.017725
-0.0176455
-0.0175282
-0.0173733
-0.0171794
-0.0169434
-0.0166614
-0.0163294
-0.0159431
-0.0154987
-0.0149933
-0.0144254
-0.0137945
-0.0131029
-0.0166697
-0.0166443
-0.0166167
-0.0166002
-0.016602
-0.016626
-0.016674
-0.0167463
-0.0168418
-0.0169586
-0.0170946
-0.0172481
-0.0174182
-0.0176055
-0.0178116
-0.0180398
-0.0182945
-0.0185809
-0.0189042
-0.0192695
-0.0196806
-0.0201402
-0.0206487
-0.0212048
-0.0218043
-0.0224407
-0.0231043
-0.023782
-0.024457
-0.0251084
-0.0257112
-0.0262359
-0.026649
-0.0269138
-0.0269908
-0.0268392
-0.0264187
-0.0256909
-0.0246213
-0.0231816
-0.021351
-0.0191188
-0.0164846
-0.0134605
-0.010071
-0.00635352
-0.00235714
0.00186512
0.00623697
0.0106822
0.0151186
0.0194605
0.0236224
0.0275218
0.0310815
0.0342326
0.0369159
0.0390839
0.0407019
0.0417483
0.0422154
0.0421081
0.041444
0.040252
0.0385714
0.0364491
0.033938
0.0310971
0.0279895
0.0246797
0.0212325
0.0177109
0.0141754
0.0106823
0.0072829
0.00402223
0.000938251
-0.00193824
-0.00458412
-0.00698348
-0.00912756
-0.0110144
-0.0126482
-0.0140383
-0.0151985
-0.0161461
-0.0169005
-0.017483
-0.0179154
-0.0182196
-0.0184168
-0.018527
-0.0185689
-0.0185593
-0.018513
-0.0184427
-0.0183588
-0.0182697
-0.0181816
-0.0180987
-0.0180232
-0.0179558
-0.0178957
-0.0178413
-0.0177899
-0.0177386
-0.0176841
-0.0176233
-0.0175534
-0.0174718
-0.0173765
-0.0172663
-0.0171402
-0.0169981
-0.0168402
-0.0166672
-0.0164804
-0.0162812
-0.0160712
-0.0158524
-0.0156264
-0.0153953
-0.0151609
-0.0149248
-0.0146886
-0.0144535
-0.0142211
-0.0139922
-0.0137676
-0.0135481
-0.0133342
-0.0131262
-0.0129243
-0.0127286
-0.0125392
-0.012356
-0.0121787
-0.0120073
-0.0118414
-0.0116807
-0.0115249
-0.0113738
-0.0112268
-0.0110838
-0.0109443
-0.0108081
-0.0106747
-0.0105439
-0.0104153
-0.0102886
-0.0101636
-0.01004
-0.00991742
-0.00979574
-0.00967471
-0.00955411
-0.00943373
-0.0093134
-0.00919295
-0.0090722
-0.00895102
-0.00882924
-0.00870672
-0.00858332
-0.0084589
-0.00833328
-0.0082063
-0.00807772
-0.00794721
-0.00781425
-0.00767801
-0.00753719
-0.00738985
-0.00723319
-0.00706436
-0.00687992
-0.00667828
-0.00646509
-0.00624196
-0.0059499
-0.0167442
-0.0167061
-0.0166713
-0.0166532
-0.0166534
-0.0166723
-0.0167099
-0.0167659
-0.0168388
-0.016927
-0.0170288
-0.0171432
-0.01727
-0.0174103
-0.0175662
-0.0177413
-0.01794
-0.0181672
-0.018428
-0.018727
-0.0190682
-0.0194541
-0.0198859
-0.0203632
-0.0208836
-0.0214428
-0.0220338
-0.0226468
-0.0232687
-0.0238824
-0.0244662
-0.024994
-0.0254352
-0.0257545
-0.0259133
-0.0258701
-0.0255824
-0.0250086
-0.0241097
-0.0228519
-0.0212088
-0.0191637
-0.0167112
-0.013859
-0.0106288
-0.00705338
-0.00317341
0.000946123
0.00523923
0.00962517
0.0140185
0.0183312
0.0224756
0.0263669
0.0299261
0.0330825
0.0357757
0.0379572
0.0395917
0.0406574
0.0411462
0.0410635
0.0404269
0.0392655
0.0376178
0.0355309
0.0330592
0.0302623
0.0272038
0.0239485
0.0205604
0.0171024
0.0136342
0.0102113
0.00688405
0.00369635
0.000685379
-0.0021193
-0.00469628
-0.00703088
-0.00911542
-0.0109488
-0.0125357
-0.013886
-0.0150135
-0.0159352
-0.0166704
-0.0172397
-0.0176642
-0.0179651
-0.0181628
-0.0182768
-0.0183248
-0.0183231
-0.0182859
-0.0182254
-0.0181518
-0.018073
-0.0179951
-0.0179221
-0.0178562
-0.017798
-0.0177469
-0.0177011
-0.0176582
-0.0176153
-0.0175691
-0.0175166
-0.0174549
-0.0173814
-0.0172943
-0.0171919
-0.0170736
-0.0169389
-0.0167881
-0.0166219
-0.0164414
-0.0162481
-0.0160435
-0.0158296
-0.0156081
-0.015381
-0.01515
-0.014917
-0.0146834
-0.0144508
-0.0142203
-0.013993
-0.0137698
-0.0135514
-0.0133383
-0.0131309
-0.0129295
-0.0127342
-0.0125449
-0.0123618
-0.0121845
-0.012013
-0.0118469
-0.0116861
-0.0115301
-0.0113786
-0.0112314
-0.0110881
-0.0109484
-0.0108118
-0.0106781
-0.010547
-0.0104182
-0.0102912
-0.010166
-0.0100421
-0.00991932
-0.00979744
-0.00967621
-0.00955543
-0.0094349
-0.00931442
-0.00919383
-0.00907297
-0.00895167
-0.00882979
-0.00870719
-0.00858371
-0.00845921
-0.00833352
-0.00820645
-0.00807776
-0.0079471
-0.00781394
-0.00767744
-0.00753631
-0.00738871
-0.0072324
-0.00706465
-0.00688292
-0.0066858
-0.0064804
-0.0062662
-0.00598939
-0.0167502
-0.0167041
-0.0166635
-0.0166437
-0.0166434
-0.0166598
-0.0166914
-0.0167362
-0.016792
-0.0168562
-0.0169272
-0.0170037
-0.0170861
-0.017176
-0.0172767
-0.0173927
-0.0175297
-0.0176937
-0.0178913
-0.0181283
-0.0184101
-0.0187412
-0.0191252
-0.0195645
-0.0200605
-0.0206128
-0.0212189
-0.0218732
-0.0225662
-0.0232834
-0.0240045
-0.0247026
-0.0253442
-0.0258892
-0.0262921
-0.0265035
-0.0264719
-0.0261465
-0.0254798
-0.0244307
-0.0229669
-0.0210679
-0.0187274
-0.0159531
-0.0127641
-0.00918987
-0.0052841
-0.00111718
0.00323615
0.00769234
0.0121623
0.0165544
0.0207778
0.024745
0.0283751
0.031596
0.0343467
0.0365785
0.0382565
0.0393597
0.0398811
0.0398273
0.0392173
0.0380813
0.0364591
0.0343994
0.031957
0.0291916
0.0261673
0.0229492
0.0196021
0.016189
0.01277
0.0094009
0.00613202
0.00300726
6.33796e-05
-0.00267075
-0.00517396
-0.00743312
-0.00944208
-0.0112013
-0.0127169
-0.014
-0.0150656
-0.0159317
-0.016618
-0.0171453
-0.0175349
-0.0178077
-0.0179837
-0.0180817
-0.0181189
-0.0181109
-0.0180713
-0.0180116
-0.0179414
-0.0178681
-0.0177972
-0.0177325
-0.0176758
-0.0176275
-0.0175866
-0.0175513
-0.017519
-0.0174866
-0.0174509
-0.0174086
-0.0173569
-0.017293
-0.017215
-0.0171214
-0.0170112
-0.0168841
-0.0167403
-0.0165806
-0.016406
-0.016218
-0.0160183
-0.0158086
-0.015591
-0.0153673
-0.0151393
-0.0149089
-0.0146776
-0.0144469
-0.014218
-0.0139922
-0.0137701
-0.0135527
-0.0133404
-0.0131337
-0.0129327
-0.0127378
-0.0125488
-0.0123658
-0.0121887
-0.0120172
-0.0118511
-0.0116901
-0.011534
-0.0113824
-0.0112351
-0.0110916
-0.0109516
-0.0108148
-0.010681
-0.0105496
-0.0104206
-0.0102934
-0.010168
-0.0100439
-0.00992097
-0.00979892
-0.00967755
-0.00955662
-0.00943596
-0.00931536
-0.00919466
-0.00907369
-0.0089523
-0.00883035
-0.00870767
-0.00858413
-0.00845957
-0.00833382
-0.0082067
-0.00807794
-0.00794719
-0.00781392
-0.00767732
-0.00753619
-0.00738886
-0.00723333
-0.00706737
-0.00688886
-0.00669699
-0.0064996
-0.00629609
-0.00603355
-0.0166483
-0.0166067
-0.0165716
-0.0165579
-0.0165631
-0.0165835
-0.0166157
-0.0166566
-0.0167025
-0.0167502
-0.0167971
-0.0168422
-0.0168861
-0.0169318
-0.0169843
-0.0170505
-0.0171389
-0.0172587
-0.0174199
-0.0176325
-0.0179061
-0.0182503
-0.0186739
-0.0191853
-0.0197914
-0.020497
-0.0213033
-0.0222065
-0.0231963
-0.0242539
-0.0253517
-0.0264524
-0.0275092
-0.0284677
-0.0292672
-0.029844
-0.030134
-0.0300766
-0.0296176
-0.0287125
-0.0273292
-0.0254506
-0.0230747
-0.0202113
-0.0168848
-0.0131451
-0.00905837
-0.00469601
-0.000139759
0.00452095
0.00919184
0.0137769
0.0181817
0.0223161
0.0260972
0.0294522
0.0323198
0.0346519
0.0364148
0.0375893
0.0381703
0.0381665
0.037599
0.0364994
0.0349112
0.0328845
0.0304732
0.0277381
0.0247438
0.0215562
0.0182406
0.014861
0.0114786
0.0081501
0.00492707
0.00185429
-0.00103085
-0.00369891
-0.00612893
-0.00830797
-0.0102311
-0.0119003
-0.0133237
-0.0145143
-0.0154892
-0.0162681
-0.0168724
-0.0173245
-0.0176465
-0.0178597
-0.0179846
-0.0180398
-0.0180422
-0.0180068
-0.0179467
-0.0178725
-0.0177933
-0.0177156
-0.0176443
-0.0175823
-0.017531
-0.01749
-0.017458
-0.0174325
-0.0174105
-0.0173887
-0.0173635
-0.0173314
-0.0172893
-0.0172344
-0.0171645
-0.0170781
-0.0169744
-0.0168529
-0.016714
-0.0165584
-0.0163873
-0.0162022
-0.0160049
-0.0157973
-0.0155813
-0.015359
-0.0151323
-0.0149029
-0.0146725
-0.0144426
-0.0142145
-0.0139892
-0.0137678
-0.0135509
-0.0133391
-0.0131327
-0.0129322
-0.0127375
-0.0125489
-0.0123661
-0.0121892
-0.0120178
-0.0118519
-0.011691
-0.011535
-0.0113835
-0.0112361
-0.0110926
-0.0109527
-0.0108159
-0.010682
-0.0105506
-0.0104215
-0.0102944
-0.0101688
-0.0100447
-0.00992173
-0.00979964
-0.00967821
-0.00955723
-0.00943651
-0.00931587
-0.00919513
-0.00907413
-0.00895271
-0.00883072
-0.00870803
-0.00858447
-0.0084599
-0.00833416
-0.00820704
-0.00807828
-0.00794756
-0.00781435
-0.00767791
-0.00753715
-0.00739061
-0.0072365
-0.00707297
-0.00689821
-0.00671173
-0.00652076
-0.00632449
-0.00608098
-0.0164366
-0.0164135
-0.0163984
-0.0164022
-0.0164224
-0.0164548
-0.0164954
-0.0165399
-0.0165839
-0.0166233
-0.0166555
-0.01668
-0.0166991
-0.0167179
-0.0167447
-0.0167904
-0.0168683
-0.0169931
-0.017181
-0.0174488
-0.0178137
-0.018293
-0.0189029
-0.0196584
-0.0205708
-0.0216466
-0.0228849
-0.0242752
-0.0257962
-0.0274141
-0.0290829
-0.0307451
-0.0323342
-0.0337769
-0.034997
-0.035919
-0.0364719
-0.0365923
-0.0362273
-0.0353374
-0.0338982
-0.0319005
-0.0293487
-0.0262646
-0.0226931
-0.0186935
-0.0143323
-0.00968833
-0.00484976
8.81239e-05
0.0050261
0.00986407
0.0145042
0.0188541
0.0228296
0.0263571
0.0293759
0.0318391
0.033715
0.0349865
0.0356513
0.0357207
0.0352178
0.0341777
0.0326459
0.0306712
0.0283094
0.0256226
0.022676
0.0195352
0.0162665
0.0129346
0.00960176
0.00632609
0.00316043
0.00015104
-0.00266341
-0.00525252
-0.00759502
-0.00967799
-0.0114969
-0.0130552
-0.0143627
-0.0154345
-0.0162902
-0.0169519
-0.0174436
-0.0177894
-0.0180132
-0.0181378
-0.018184
-0.018171
-0.0181157
-0.0180326
-0.0179341
-0.0178304
-0.0177293
-0.0176367
-0.0175565
-0.0174906
-0.0174394
-0.0174019
-0.0173758
-0.0173579
-0.0173446
-0.0173319
-0.0173158
-0.0172924
-0.0172582
-0.0172104
-0.0171466
-0.0170653
-0.0169656
-0.0168471
-0.0167103
-0.0165561
-0.0163858
-0.016201
-0.0160036
-0.0157957
-0.0155793
-0.0153565
-0.0151292
-0.0148993
-0.0146685
-0.0144383
-0.01421
-0.0139846
-0.0137632
-0.0135463
-0.0133346
-0.0131285
-0.0129282
-0.0127338
-0.0125454
-0.012363
-0.0121863
-0.0120153
-0.0118496
-0.011689
-0.0115332
-0.0113819
-0.0112348
-0.0110915
-0.0109517
-0.0108151
-0.0106814
-0.0105501
-0.0104211
-0.0102941
-0.0101686
-0.0100446
-0.00992165
-0.0097996
-0.00967821
-0.00955727
-0.00943659
-0.00931597
-0.00919526
-0.00907428
-0.00895288
-0.00883092
-0.00870826
-0.00858474
-0.00846021
-0.00833451
-0.00820745
-0.00807879
-0.00794819
-0.00781519
-0.00767915
-0.0075391
-0.00739381
-0.00724176
-0.00708134
-0.006911
-0.00673036
-0.00654473
-0.00635341
-0.00613313
-0.0161237
-0.0161318
-0.0161498
-0.0161814
-0.0162252
-0.0162775
-0.0163341
-0.0163904
-0.016442
-0.016485
-0.0165181
-0.0165427
-0.0165641
-0.0165913
-0.0166376
-0.0167202
-0.0168591
-0.0170774
-0.0173998
-0.0178523
-0.0184612
-0.0192515
-0.0202454
-0.0214601
-0.0229048
-0.0245784
-0.026467
-0.0285422
-0.0307605
-0.0330643
-0.0353836
-0.0376392
-0.0397465
-0.0416191
-0.0431733
-0.0443313
-0.0450243
-0.045195
-0.044799
-0.0438066
-0.0422029
-0.0399878
-0.0371792
-0.0338131
-0.0299403
-0.0256221
-0.0209327
-0.0159575
-0.0107909
-0.00553369
-0.000289992
0.00483597
0.00974311
0.0143367
0.0185312
0.022253
0.025442
0.0280532
0.0300573
0.0314404
0.0322035
0.0323609
0.0319386
0.0309764
0.0295182
0.0276138
0.0253217
0.0227043
0.0198261
0.0167534
0.0135525
0.0102889
0.00702606
0.00382351
0.0007357
-0.0021894
-0.00491151
-0.00739893
-0.00962977
-0.0115914
-0.0132798
-0.0146993
-0.0158617
-0.0167846
-0.0174901
-0.0180032
-0.0183508
-0.0185595
-0.0186555
-0.0186629
-0.0186041
-0.0184984
-0.0183631
-0.0182123
-0.0180578
-0.017909
-0.0177728
-0.017654
-0.0175552
-0.0174773
-0.0174196
-0.0173799
-0.017355
-0.0173406
-0.0173323
-0.0173254
-0.0173152
-0.0172975
-0.0172682
-0.0172244
-0.0171635
-0.017084
-0.016985
-0.0168664
-0.0167286
-0.0165727
-0.0164002
-0.016213
-0.016013
-0.0158025
-0.0155835
-0.0153583
-0.0151289
-0.0148972
-0.0146648
-0.0144334
-0.014204
-0.0139779
-0.013756
-0.0135389
-0.0133271
-0.013121
-0.0129208
-0.0127267
-0.0125387
-0.0123566
-0.0121804
-0.0120097
-0.0118445
-0.0116843
-0.011529
-0.0113781
-0.0112314
-0.0110884
-0.010949
-0.0108127
-0.0106792
-0.0105483
-0.0104195
-0.0102927
-0.0101674
-0.0100436
-0.00992081
-0.00979891
-0.00967765
-0.00955682
-0.00943624
-0.00931572
-0.00919509
-0.00907418
-0.00895286
-0.00883098
-0.00870839
-0.00858495
-0.00846051
-0.00833491
-0.00820797
-0.00807945
-0.00794907
-0.00781643
-0.00768097
-0.00754194
-0.00739831
-0.00724882
-0.00709209
-0.0069267
-0.00675223
-0.00657133
-0.00638374
-0.00618736
-0.0157298
-0.0157797
-0.0158413
-0.0159091
-0.0159829
-0.0160613
-0.016141
-0.0162182
-0.0162897
-0.0163539
-0.0164119
-0.016469
-0.0165353
-0.0166261
-0.0167616
-0.0169671
-0.0172719
-0.0177086
-0.0183116
-0.0191161
-0.020155
-0.0214572
-0.0230439
-0.0249255
-0.0270982
-0.0295423
-0.0322203
-0.0350777
-0.038045
-0.0410401
-0.0439732
-0.0467506
-0.049279
-0.0514699
-0.0532417
-0.0545227
-0.0552526
-0.0553837
-0.0548815
-0.053725
-0.0519076
-0.0494397
-0.0463488
-0.042675
-0.0384722
-0.0338082
-0.0287638
-0.0234309
-0.0179099
-0.0123076
-0.00673326
-0.0012957
0.00390029
0.00875733
0.0131885
0.0171199
0.0204925
0.0232635
0.0254067
0.026912
0.0277841
0.0280403
0.0277132
0.0268419
0.0254705
0.0236529
0.0214481
0.0189176
0.0161259
0.0131389
0.0100236
0.00684632
0.00367174
0.000561226
-0.00242869
-0.00524791
-0.00785414
-0.010214
-0.0123048
-0.0141143
-0.0156394
-0.0168858
-0.0178676
-0.0186053
-0.0191241
-0.0194528
-0.0196213
-0.0196595
-0.0195959
-0.0194568
-0.0192657
-0.0190427
-0.0188049
-0.0185664
-0.0183382
-0.0181285
-0.0179433
-0.0177859
-0.0176578
-0.0175586
-0.0174861
-0.0174368
-0.0174064
-0.0173896
-0.0173809
-0.0173747
-0.0173657
-0.0173489
-0.01732
-0.0172758
-0.0172136
-0.0171318
-0.0170297
-0.0169071
-0.0167648
-0.0166041
-0.0164266
-0.0162342
-0.0160293
-0.0158141
-0.0155908
-0.0153617
-0.0151289
-0.0148943
-0.0146595
-0.0144261
-0.0141953
-0.0139681
-0.0137454
-0.0135278
-0.0133159
-0.0131098
-0.0129099
-0.0127162
-0.0125286
-0.012347
-0.0121714
-0.0120014
-0.0118367
-0.0116772
-0.0115224
-0.0113721
-0.011226
-0.0110836
-0.0109446
-0.0108088
-0.0106758
-0.0105453
-0.0104169
-0.0102904
-0.0101654
-0.0100419
-0.00991934
-0.00979767
-0.00967661
-0.00955597
-0.00943555
-0.00931518
-0.00919468
-0.00907391
-0.00895271
-0.00883093
-0.00870846
-0.00858514
-0.00846083
-0.00833537
-0.0082086
-0.00808031
-0.00795024
-0.00781807
-0.00768338
-0.00754557
-0.00740387
-0.00725726
-0.00710447
-0.00694416
-0.00677573
-0.00659904
-0.00641418
-0.00623911
-0.0152892
-0.0153886
-0.0155014
-0.0156104
-0.0157186
-0.015828
-0.0159379
-0.0160471
-0.0161551
-0.0162643
-0.0163806
-0.0165151
-0.0166847
-0.0169127
-0.0172283
-0.0176662
-0.0182657
-0.0190686
-0.0201174
-0.0214521
-0.0231066
-0.0251051
-0.0274576
-0.030157
-0.033177
-0.0364713
-0.0399752
-0.0436086
-0.0472798
-0.050891
-0.0543422
-0.0575364
-0.060382
-0.0627956
-0.0647037
-0.0660432
-0.0667624
-0.0668215
-0.0661925
-0.0648604
-0.0628251
-0.0601047
-0.0567275
-0.0527377
-0.0481948
-0.043173
-0.0377593
-0.0320522
-0.0261589
-0.0201923
-0.0142679
-0.00849969
-0.00299675
0.00214042
0.00682315
0.0109772
0.0145449
0.0174859
0.0197776
0.0214142
0.0224049
0.022772
0.0225503
0.0217799
0.0205092
0.0187931
0.0166897
0.0142602
0.0115682
0.00867977
0.00566206
0.00258258
-0.000492196
-0.0034985
-0.006377
-0.00907468
-0.0115465
-0.0137569
-0.0156817
-0.0173089
-0.0186364
-0.0196722
-0.0204333
-0.020944
-0.0212339
-0.0213363
-0.0212853
-0.0211146
-0.0208559
-0.0205376
-0.0201846
-0.0198178
-0.0194541
-0.019107
-0.0187865
-0.0184995
-0.0182506
-0.0180417
-0.0178726
-0.0177414
-0.0176444
-0.0175769
-0.017533
-0.0175063
-0.0174901
-0.017478
-0.0174638
-0.0174421
-0.0174081
-0.0173583
-0.0172899
-0.0172014
-0.0170919
-0.0169618
-0.0168117
-0.0166431
-0.016458
-0.0162584
-0.0160466
-0.0158252
-0.0155964
-0.0153625
-0.0151255
-0.0148875
-0.0146499
-0.0144143
-0.0141819
-0.0139536
-0.0137302
-0.0135124
-0.0133004
-0.0130946
-0.0128951
-0.012702
-0.0125151
-0.0123343
-0.0121594
-0.0119903
-0.0118265
-0.0116678
-0.0115138
-0.0113643
-0.0112189
-0.0110772
-0.010939
-0.0108038
-0.0106713
-0.0105413
-0.0104134
-0.0102873
-0.0101628
-0.0100396
-0.00991742
-0.00979604
-0.00967525
-0.00955485
-0.00943465
-0.00931447
-0.00919414
-0.00907353
-0.00895248
-0.00883085
-0.00870852
-0.00858535
-0.0084612
-0.00833594
-0.00820939
-0.00808138
-0.0079517
-0.00782011
-0.00768629
-0.00754984
-0.00741016
-0.00726644
-0.00711749
-0.00696191
-0.00679884
-0.00662581
-0.00644271
-0.00628421
-0.0148526
-0.0150056
-0.015173
-0.0153255
-0.0154706
-0.0156157
-0.0157641
-0.015919
-0.016085
-0.0162699
-0.0164867
-0.0167539
-0.0170973
-0.0175493
-0.0181488
-0.0189403
-0.0199713
-0.0212902
-0.0229423
-0.0249655
-0.027386
-0.0302132
-0.0334369
-0.037025
-0.0409241
-0.0450612
-0.0493481
-0.0536865
-0.0579731
-0.0621043
-0.0659807
-0.0695094
-0.0726057
-0.0751942
-0.0772085
-0.0785922
-0.0792989
-0.0792928
-0.078549
-0.0770551
-0.0748172
-0.0718536
-0.0681951
-0.063891
-0.0590063
-0.0536212
-0.0478294
-0.0417364
-0.0354566
-0.0291102
-0.0228191
-0.0167035
-0.0108774
-0.00544504
-0.000497038
0.003892
0.00766561
0.0107864
0.0132359
0.0150132
0.0161316
0.0166197
0.0165137
0.0158567
0.0147
0.013098
0.0111079
0.00878987
0.00620667
0.00342388
0.000509154
-0.00246857
-0.00544044
-0.00833947
-0.0111026
-0.0136728
-0.0160013
-0.0180496
-0.0197907
-0.0212123
-0.0223129
-0.0231032
-0.023604
-0.0238444
-0.0238601
-0.0236899
-0.023374
-0.0229508
-0.0224562
-0.0219215
-0.0213732
-0.0208329
-0.0203172
-0.0198387
-0.0194058
-0.019024
-0.0186957
-0.0184211
-0.0181983
-0.0180234
-0.0178913
-0.0177955
-0.0177288
-0.0176834
-0.0176516
-0.017626
-0.0175996
-0.0175664
-0.0175213
-0.0174604
-0.0173809
-0.0172813
-0.0171608
-0.0170197
-0.0168591
-0.0166804
-0.0164858
-0.0162775
-0.016058
-0.0158296
-0.0155948
-0.0153557
-0.0151146
-0.0148731
-0.014633
-0.0143955
-0.0141618
-0.0139328
-0.0137092
-0.0134914
-0.0132799
-0.0130748
-0.0128761
-0.0126839
-0.0124981
-0.0123184
-0.0121447
-0.0119767
-0.011814
-0.0116564
-0.0115035
-0.011355
-0.0112105
-0.0110697
-0.0109322
-0.0107978
-0.0106661
-0.0105367
-0.0104094
-0.0102838
-0.0101598
-0.010037
-0.00991524
-0.00979421
-0.00967373
-0.00955361
-0.00943365
-0.00931369
-0.00919357
-0.00907314
-0.00895226
-0.0088308
-0.00870863
-0.00858563
-0.00846167
-0.00833661
-0.00821032
-0.00808263
-0.0079534
-0.00782244
-0.00768955
-0.00755445
-0.0074167
-0.00727561
-0.00713002
-0.00697842
-0.00681962
-0.00664969
-0.0064675
-0.00631998
-0.0144862
-0.0146926
-0.0149142
-0.01511
-0.0152935
-0.0154791
-0.0156761
-0.0158935
-0.0161429
-0.0164397
-0.0168049
-0.0172666
-0.0178597
-0.0186264
-0.0196148
-0.0208767
-0.0224648
-0.0244285
-0.0268089
-0.0296336
-0.0329123
-0.0366325
-0.0407584
-0.0452314
-0.0499731
-0.0548901
-0.0598794
-0.0648345
-0.0696501
-0.0742254
-0.0784668
-0.0822884
-0.0856123
-0.0883686
-0.0904954
-0.0919388
-0.0926539
-0.092606
-0.0917706
-0.0901371
-0.0877148
-0.084521
-0.0805911
-0.0759789
-0.0707549
-0.0650053
-0.0588309
-0.0523444
-0.0456681
-0.0389297
-0.0322588
-0.0257822
-0.0196194
-0.0138786
-0.00865309
-0.00401785
-2.79949e-05
0.00328224
0.00589898
0.00782642
0.00908339
0.00970234
0.0097226
0.00919149
0.00816069
0.00668371
0.00481621
0.00261656
0.000146294
-0.0025296
-0.00534285
-0.00822265
-0.0110971
-0.013895
-0.0165487
-0.018996
-0.0211833
-0.0230678
-0.0246188
-0.0258227
-0.0266771
-0.0271951
-0.0274021
-0.0273331
-0.0270306
-0.0265412
-0.0259125
-0.0251898
-0.0244143
-0.0236215
-0.0228402
-0.0220928
-0.0213958
-0.0207602
-0.0201927
-0.0196965
-0.0192717
-0.0189162
-0.0186257
-0.0183946
-0.0182156
-0.0180806
-0.017981
-0.0179075
-0.0178514
-0.0178042
-0.0177582
-0.0177069
-0.0176448
-0.0175676
-0.0174726
-0.0173581
-0.0172235
-0.0170692
-0.0168962
-0.0167062
-0.0165013
-0.0162838
-0.0160562
-0.015821
-0.0155805
-0.0153369
-0.0150922
-0.014848
-0.0146061
-0.0143675
-0.0141333
-0.0139043
-0.0136812
-0.0134642
-0.0132538
-0.0130499
-0.0128527
-0.012662
-0.0124777
-0.0122995
-0.0121274
-0.0119608
-0.0117996
-0.0116433
-0.0114917
-0.0113444
-0.011201
-0.0110613
-0.0109248
-0.0107913
-0.0106603
-0.0105317
-0.0104051
-0.0102802
-0.0101567
-0.0100344
-0.009913
-0.00979236
-0.00967222
-0.0095524
-0.0094327
-0.00931298
-0.00919307
-0.00907283
-0.00895213
-0.00883083
-0.00870883
-0.00858601
-0.00846223
-0.00833739
-0.00821137
-0.00808403
-0.00795526
-0.00782493
-0.00769292
-0.00755903
-0.00742294
-0.00728401
-0.00714106
-0.00699244
-0.00683665
-0.00666925
-0.00648733
-0.00634543
-0.0142671
-0.0145219
-0.0147931
-0.0150298
-0.0152526
-0.0154841
-0.0157411
-0.0160401
-0.0164008
-0.0168475
-0.0174107
-0.0181279
-0.0190436
-0.0202086
-0.0216778
-0.0235072
-0.0257492
-0.0284477
-0.0316327
-0.0353144
-0.0394802
-0.0440929
-0.0490913
-0.0543941
-0.0599048
-0.0655182
-0.071126
-0.0766219
-0.0819044
-0.0868792
-0.0914591
-0.0955638
-0.0991194
-0.102058
-0.104319
-0.105846
-0.106596
-0.106532
-0.105628
-0.103877
-0.101289
-0.0978796
-0.0936909
-0.0887805
-0.0832239
-0.0771137
-0.0705573
-0.0636754
-0.0565981
-0.0494613
-0.0424025
-0.0355556
-0.0290463
-0.0229873
-0.0174746
-0.0125838
-0.00836878
-0.00486035
-0.00206763
1.88796e-05
0.0014237
0.00218312
0.00234094
0.00194681
0.00105184
-0.000292142
-0.00203179
-0.00411107
-0.00647017
-0.00904463
-0.0117652
-0.0145586
-0.017349
-0.0200604
-0.0226191
-0.0249572
-0.027015
-0.0287444
-0.0301096
-0.0310955
-0.0316962
-0.031927
-0.0318173
-0.0314082
-0.0307502
-0.0298989
-0.0289113
-0.0278417
-0.0267387
-0.0256432
-0.0245879
-0.0235966
-0.0226856
-0.0218646
-0.0211379
-0.0205059
-0.0199658
-0.0195127
-0.0191398
-0.0188388
-0.0186005
-0.0184151
-0.018272
-0.0181609
-0.0180716
-0.0179949
-0.0179224
-0.0178468
-0.0177623
-0.0176646
-0.0175506
-0.0174186
-0.0172679
-0.0170989
-0.0169128
-0.0167112
-0.0164962
-0.0162701
-0.0160354
-0.0157943
-0.0155492
-0.0153022
-0.0150551
-0.0148096
-0.014567
-0.0143285
-0.014095
-0.0138671
-0.0136454
-0.0134302
-0.0132216
-0.0130198
-0.0128247
-0.0126361
-0.0124539
-0.0122778
-0.0121076
-0.0119429
-0.0117834
-0.0116288
-0.0114788
-0.0113329
-0.0111909
-0.0110524
-0.010917
-0.0107845
-0.0106544
-0.0105266
-0.0104007
-0.0102765
-0.0101536
-0.0100318
-0.00991089
-0.00979064
-0.00967086
-0.00955134
-0.00943192
-0.00931243
-0.00919273
-0.00907267
-0.00895214
-0.00883101
-0.00870916
-0.00858649
-0.0084629
-0.00833827
-0.00821249
-0.00808548
-0.00795713
-0.00782737
-0.00769611
-0.00756321
-0.00742839
-0.007291
-0.00714984
-0.00700316
-0.00684915
-0.00668367
-0.00650168
-0.00636106
-0.0142718
-0.0145656
-0.0148782
-0.0151517
-0.0154143
-0.0156976
-0.0160267
-0.0164265
-0.0169257
-0.0175582
-0.018364
-0.0193899
-0.0206888
-0.0223179
-0.0243356
-0.0267973
-0.0297498
-0.0332258
-0.0372382
-0.0417764
-0.0468039
-0.0522599
-0.0580626
-0.0641147
-0.0703099
-0.0765392
-0.0826955
-0.0886771
-0.0943887
-0.0997418
-0.104654
-0.109046
-0.112847
-0.115986
-0.118401
-0.120036
-0.120842
-0.120782
-0.11983
-0.117981
-0.115242
-0.111635
-0.107203
-0.102008
-0.0961314
-0.0896704
-0.0827399
-0.0754678
-0.0679923
-0.0604579
-0.0530099
-0.0457899
-0.03893
-0.0325479
-0.0267426
-0.0215906
-0.0171444
-0.0134316
-0.0104565
-0.00820434
-0.00664442
-0.0057364
-0.00543259
-0.00568237
-0.00643602
-0.00764435
-0.00925715
-0.0112212
-0.0134786
-0.015965
-0.0186095
-0.0213355
-0.0240626
-0.0267086
-0.0291935
-0.0314424
-0.0333892
-0.0349796
-0.0361739
-0.0369495
-0.0372997
-0.0372398
-0.0368022
-0.0360339
-0.0349932
-0.0337458
-0.0323594
-0.0308993
-0.0294236
-0.0279812
-0.0266096
-0.0253356
-0.0241759
-0.0231388
-0.0222263
-0.0214354
-0.02076
-0.0201918
-0.0197208
-0.0193361
-0.0190261
-0.0187787
-0.0185819
-0.0184239
-0.0182933
-0.01818
-0.0180747
-0.0179697
-0.0178588
-0.0177373
-0.0176019
-0.0174508
-0.0172833
-0.0170996
-0.0169008
-0.0166884
-0.0164645
-0.0162312
-0.0159908
-0.0157456
-0.0154977
-0.015249
-0.0150013
-0.014756
-0.0145144
-0.0142775
-0.014046
-0.0138205
-0.0136014
-0.013389
-0.0131833
-0.0129844
-0.0127921
-0.0126064
-0.0124268
-0.0122533
-0.0120855
-0.0119231
-0.0117658
-0.0116132
-0.0114649
-0.0113207
-0.0111802
-0.0110431
-0.010909
-0.0107775
-0.0106485
-0.0105216
-0.0103965
-0.010273
-0.0101507
-0.0100294
-0.00990902
-0.00978919