/*--------------------------------*- C++ -*----------------------------------*\
  =========                 |
  \\      /  F ield         | OpenFOAM: The Open Source CFD Toolbox
   \\    /   O peration     | Website:  https://openfoam.org
    \\  /    A nd           | Version:  8
     \\/     M anipulation  |
\*---------------------------------------------------------------------------*/
FoamFile
{
    version     2.0;
    format      ascii;
    class       surfaceScalarField;
    location    "0.4";
    object      phi;
}
// * * * * * * * * * * * * * * * * * * * * * * * * * * * * * * * * * * * * * //

dimensions      [0 3 -1 0 0 0 0];

internalField   nonuniform List<scalar> 
24170
(
1.6318e-12
-1.63181e-12
1.93963e-11
-1.77645e-11
4.45991e-11
-2.52028e-11
7.39552e-11
-2.93561e-11
1.09445e-10
-3.54895e-11
1.55819e-10
-4.63747e-11
2.18675e-10
-6.28561e-11
3.02973e-10
-8.42972e-11
4.11731e-10
-1.08758e-10
5.44978e-10
-1.33248e-10
6.99257e-10
-1.54279e-10
8.6806e-10
-1.68804e-10
1.04346e-09
-1.75395e-10
1.21858e-09
-1.75124e-10
1.38859e-09
-1.70006e-10
1.53247e-09
-1.43884e-10
1.58305e-09
-5.05825e-11
1.47448e-09
1.08577e-10
1.23341e-11
-1.39659e-11
6.81069e-11
-7.35373e-11
1.46762e-10
-1.03858e-10
2.39422e-10
-1.22016e-10
3.52461e-10
-1.48529e-10
5.00117e-10
-1.9403e-10
6.9888e-10
-2.61619e-10
9.62912e-10
-3.48329e-10
1.30013e-09
-4.45974e-10
1.70913e-09
-5.42248e-10
2.17773e-09
-6.2288e-10
2.68388e-09
-6.74953e-10
3.19887e-09
-6.90387e-10
3.69056e-09
-6.66815e-10
4.11701e-09
-5.96454e-10
4.38003e-09
-4.06906e-10
4.07579e-09
2.53663e-10
3.67338e-09
1.87688e-09
2.99607e-11
-4.39266e-11
1.29868e-10
-1.73445e-10
2.68669e-10
-2.42659e-10
4.3322e-10
-2.86567e-10
6.34894e-10
-3.50202e-10
8.97817e-10
-4.56954e-10
1.24945e-09
-6.13253e-10
1.71271e-09
-8.11591e-10
2.29935e-09
-1.03261e-09
3.00484e-09
-1.24774e-09
3.80584e-09
-1.42388e-09
4.66101e-09
-1.53012e-09
5.51423e-09
-1.54361e-09
6.29523e-09
-1.44781e-09
6.90232e-09
-1.20355e-09
7.13015e-09
-6.3473e-10
6.41859e-09
9.65215e-10
6.15265e-09
3.93933e-09
5.351e-11
-9.74366e-11
2.04477e-10
-3.24412e-10
4.10465e-10
-4.48647e-10
6.55451e-10
-5.31553e-10
9.5623e-10
-6.50982e-10
1.3469e-09
-8.47622e-10
1.86552e-09
-1.13188e-09
2.54292e-09
-1.48899e-09
3.39335e-09
-1.88304e-09
4.40739e-09
-2.26177e-09
5.54822e-09
-2.56471e-09
6.75181e-09
-2.73371e-09
7.929e-09
-2.7208e-09
8.96273e-09
-2.48154e-09
9.68444e-09
-1.92525e-09
9.80612e-09
-7.56409e-10
8.79812e-09
1.97321e-09
8.70039e-09
6.25038e-09
8.24138e-11
-1.7985e-10
2.91487e-10
-5.33485e-10
5.71933e-10
-7.29093e-10
9.05648e-10
-8.65267e-10
1.31493e-09
-1.06027e-09
1.84346e-09
-1.37615e-09
2.53904e-09
-1.82745e-09
3.43915e-09
-2.38911e-09
4.55906e-09
-3.00295e-09
5.88286e-09
-3.58558e-09
7.35856e-09
-4.04041e-09
8.89727e-09
-4.27243e-09
1.03741e-08
-4.19759e-09
1.16236e-08
-3.73106e-09
1.24195e-08
-2.72119e-09
1.24364e-08
-7.733e-10
1.12566e-08
3.15306e-09
1.11686e-08
8.78832e-09
1.16085e-10
-2.95936e-10
3.90318e-10
-8.07718e-10
7.52632e-10
-1.09141e-09
1.1829e-09
-1.29553e-09
1.70848e-09
-1.58585e-09
2.38166e-09
-2.04933e-09
3.25861e-09
-2.7044e-09
4.38188e-09
-3.51238e-09
5.76628e-09
-4.38735e-09
7.38834e-09
-5.20763e-09
9.1803e-09
-5.83237e-09
1.10285e-08
-6.12058e-09
1.27734e-08
-5.94251e-09
1.42072e-08
-5.1649e-09
1.50648e-08
-3.57875e-09
1.50238e-08
-7.32338e-10
1.38e-08
4.37689e-09
1.34454e-08
1.15232e-08
1.53917e-10
-4.49853e-10
5.00301e-10
-1.1541e-09
9.51973e-10
-1.54308e-09
1.48597e-09
-1.82953e-09
2.13356e-09
-2.23343e-09
2.95398e-09
-2.86975e-09
4.00985e-09
-3.76026e-09
5.34697e-09
-4.84951e-09
6.97844e-09
-6.01882e-09
8.87297e-09
-7.10216e-09
1.09481e-08
-7.90752e-09
1.30681e-08
-8.2406e-09
1.50448e-08
-7.91919e-09
1.66396e-08
-6.75963e-09
1.75701e-08
-4.50932e-09
1.75459e-08
-7.08087e-10
1.64054e-08
5.51731e-09
1.54374e-08
1.44135e-08
1.95369e-10
-6.45222e-10
6.20851e-10
-1.57958e-09
1.16945e-09
-2.09168e-09
1.8136e-09
-2.47368e-09
2.58647e-09
-3.00629e-09
3.55185e-09
-3.83514e-09
4.77633e-09
-4.98475e-09
6.30705e-09
-6.38023e-09
8.15456e-09
-7.86633e-09
1.02806e-08
-9.22825e-09
1.25912e-08
-1.02181e-08
1.49343e-08
-1.05837e-08
1.71026e-08
-1.00875e-08
1.8842e-08
-8.49905e-09
1.98739e-08
-5.54122e-09
1.99543e-08
-7.88489e-10
1.90193e-08
6.45239e-09
1.70591e-08
1.73976e-08
2.40046e-10
-8.85268e-10
7.516e-10
-2.09114e-09
1.40481e-09
-2.74489e-09
2.16476e-09
-3.23362e-09
3.06354e-09
-3.90508e-09
4.16634e-09
-4.93794e-09
5.5408e-09
-6.3592e-09
7.23339e-09
-8.07282e-09
9.25195e-09
-9.88489e-09
1.15535e-08
-1.15298e-08
1.40374e-08
-1.2702e-08
1.6544e-08
-1.30903e-08
1.88596e-08
-1.24031e-08
2.07311e-08
-1.03706e-08
2.19001e-08
-6.71028e-09
2.21737e-08
-1.06211e-09
2.15554e-08
7.07072e-09
1.82279e-08
2.03866e-08
2.87682e-10
-1.17295e-09
8.92371e-10
-2.69583e-09
1.65793e-09
-3.51045e-09
2.53846e-09
-4.11416e-09
3.56115e-09
-4.92777e-09
4.78859e-09
-6.16538e-09
6.28614e-09
-7.85675e-09
8.09778e-09
-9.88447e-09
1.0229e-08
-1.20161e-08
1.26356e-08
-1.39363e-08
1.52171e-08
-1.52836e-08
1.7817e-08
-1.56902e-08
2.02292e-08
-1.48153e-08
2.22177e-08
-1.2359e-08
2.35566e-08
-8.04914e-09
2.41012e-08
-1.6067e-09
2.38952e-08
7.27667e-09
1.88645e-08
2.32587e-08
3.38378e-10
-1.51133e-09
1.04286e-09
-3.40031e-09
1.92813e-09
-4.39572e-09
2.93299e-09
-5.11902e-09
4.07492e-09
-6.06969e-09
5.40929e-09
-7.49975e-09
6.99557e-09
-9.44303e-09
8.87351e-09
-1.17624e-08
1.10473e-08
-1.41899e-08
1.34757e-08
-1.63647e-08
1.60668e-08
-1.78747e-08
1.86787e-08
-1.83021e-08
2.11274e-08
-1.72639e-08
2.32079e-08
-1.44395e-08
2.4735e-08
-9.57632e-09
2.56072e-08
-2.4789e-09
2.58874e-08
6.99645e-09
1.88968e-08
2.58551e-08
3.28155e-10
-1.83948e-09
1.0034e-09
-4.07555e-09
1.8481e-09
-5.24042e-09
2.79444e-09
-6.06536e-09
3.84529e-09
-7.12054e-09
5.03809e-09
-8.69254e-09
6.41558e-09
-1.08205e-08
8.00678e-09
-1.33536e-08
9.8152e-09
-1.59984e-08
1.18119e-08
-1.83614e-08
1.39323e-08
-1.99951e-08
1.60766e-08
-2.04464e-08
1.81165e-08
-1.93038e-08
1.9912e-08
-1.6235e-08
2.13421e-08
-1.10065e-08
2.23507e-08
-3.48742e-09
2.29959e-08
6.35116e-09
1.84147e-08
2.34781e-08
4.21577e-10
-2.26106e-09
1.2908e-09
-4.94478e-09
2.37068e-09
-6.3203e-09
3.56362e-09
-7.25831e-09
4.85596e-09
-8.41288e-09
6.27572e-09
-1.01123e-08
7.86029e-09
-1.24051e-08
9.6364e-09
-1.51297e-08
1.16089e-08
-1.79709e-08
1.37551e-08
-2.05076e-08
1.60218e-08
-2.22618e-08
1.83261e-08
-2.27506e-08
2.05609e-08
-2.15386e-08
2.26112e-08
-1.82853e-08
2.43821e-08
-1.27774e-08
2.58386e-08
-4.94393e-09
2.70475e-08
5.14226e-09
1.7268e-08
2.81942e-08
5.35596e-10
-2.79666e-09
1.6444e-09
-6.05358e-09
3.01287e-09
-7.68877e-09
4.50016e-09
-8.7456e-09
6.06371e-09
-9.97643e-09
7.71064e-09
-1.17592e-08
9.46409e-09
-1.41585e-08
1.13439e-08
-1.70095e-08
1.33577e-08
-1.99847e-08
1.5497e-08
-2.26469e-08
1.77356e-08
-2.45005e-08
2.00292e-08
-2.50442e-08
2.23186e-08
-2.3828e-08
2.45401e-08
-2.05069e-08
2.66464e-08
-1.48836e-08
2.86356e-08
-6.93309e-09
3.05809e-08
3.19696e-09
1.52057e-08
3.26432e-08
6.65404e-10
-3.46206e-09
2.04803e-09
-7.43621e-09
3.74542e-09
-9.38616e-09
5.55813e-09
-1.05583e-08
7.39847e-09
-1.18168e-08
9.23655e-09
-1.35973e-08
1.10683e-08
-1.59903e-08
1.28998e-08
-1.8841e-08
1.47417e-08
-2.18266e-08
1.66095e-08
-2.45147e-08
1.85227e-08
-2.64136e-08
2.05024e-08
-2.70239e-08
2.25699e-08
-2.58955e-08
2.47466e-08
-2.26835e-08
2.70615e-08
-1.71985e-08
2.95646e-08
-9.43626e-09
3.23431e-08
4.18534e-10
1.20202e-08
3.55286e-08
7.87014e-10
-4.24907e-09
2.4284e-09
-9.07759e-09
4.43672e-09
-1.13945e-08
6.54498e-09
-1.26666e-08
8.6043e-09
-1.38761e-08
1.05293e-08
-1.55224e-08
1.22726e-08
-1.77336e-08
1.38155e-08
-2.03839e-08
1.51695e-08
-2.31806e-08
1.63799e-08
-2.57251e-08
1.75271e-08
-2.75608e-08
1.87228e-08
-2.82196e-08
2.00999e-08
-2.72726e-08
2.18011e-08
-2.43847e-08
2.39675e-08
-1.9365e-08
2.67321e-08
-1.22009e-08
3.02181e-08
-3.06743e-09
7.69757e-09
3.45407e-08
8.37556e-10
-5.08663e-09
2.59323e-09
-1.08333e-08
4.7411e-09
-1.35423e-08
6.96136e-09
-1.48868e-08
9.0395e-09
-1.59542e-08
1.08214e-08
-1.73043e-08
1.22007e-08
-1.91128e-08
1.31204e-08
-2.13036e-08
1.35825e-08
-2.36427e-08
1.36567e-08
-2.57993e-08
1.34842e-08
-2.73884e-08
1.32734e-08
-2.80088e-08
1.32844e-08
-2.72836e-08
1.38052e-08
-2.49056e-08
1.5123e-08
-2.06828e-08
1.7495e-08
-1.45729e-08
2.11261e-08
-6.69849e-09
2.66796e-09
2.61557e-08
6.9343e-10
-5.78006e-09
2.16392e-09
-1.23038e-08
3.97366e-09
-1.53521e-08
5.81453e-09
-1.67277e-08
7.43377e-09
-1.75735e-08
8.61631e-09
-1.84868e-08
9.1932e-09
-1.96897e-08
9.05848e-09
-2.11689e-08
8.18712e-09
-2.27714e-08
6.64932e-09
-2.42615e-08
4.61872e-09
-2.53578e-08
2.36998e-09
-2.576e-08
2.63725e-10
-2.51773e-08
-1.28147e-09
-2.33604e-08
-1.82817e-09
-2.01361e-08
-9.65286e-10
-1.54358e-08
1.64899e-09
-9.31277e-09
-1.9219e-09
6.23886e-09
1.5652e-10
-5.93658e-09
5.37019e-10
-1.26843e-08
1.03584e-09
-1.58509e-08
1.49449e-09
-1.71864e-08
1.70365e-09
-1.77826e-08
1.43878e-09
-1.8222e-08
4.99034e-10
-1.875e-08
-1.25994e-09
-1.94099e-08
-3.90055e-09
-2.01308e-08
-7.38436e-09
-2.07777e-08
-1.15603e-08
-2.11818e-08
-1.6161e-08
-2.11593e-08
-2.081e-08
-2.05283e-08
-2.50432e-08
-1.91272e-08
-2.83447e-08
-1.68347e-08
-3.01931e-08
-1.35874e-08
-3.01133e-08
-9.39252e-09
-4.32817e-09
-2.77071e-08
-4.73702e-10
-5.46288e-09
-1.39486e-09
-1.17631e-08
-2.48663e-09
-1.47591e-08
-3.67055e-09
-1.60025e-08
-4.98665e-09
-1.64665e-08
-6.52766e-09
-1.6681e-08
-8.39493e-09
-1.68827e-08
-1.06699e-08
-1.71349e-08
-1.33959e-08
-1.74048e-08
-1.65658e-08
-1.76077e-08
-2.01146e-08
-1.7633e-08
-2.39148e-08
-1.73592e-08
-2.77765e-08
-1.66665e-08
-3.14546e-08
-1.54491e-08
-3.46619e-08
-1.36274e-08
-3.70905e-08
-1.11587e-08
-3.84382e-08
-8.04487e-09
-4.33556e-09
-3.84308e-08
-8.34434e-10
-4.62844e-09
-2.50027e-09
-1.00973e-08
-4.50604e-09
-1.27534e-08
-6.64676e-09
-1.38617e-08
-8.87152e-09
-1.42418e-08
-1.12017e-08
-1.43508e-08
-1.36831e-08
-1.44013e-08
-1.63581e-08
-1.44599e-08
-1.92494e-08
-1.45135e-08
-2.235e-08
-1.45072e-08
-2.5618e-08
-1.43651e-08
-2.89732e-08
-1.40039e-08
-3.2297e-08
-1.33426e-08
-3.54354e-08
-1.23107e-08
-3.82063e-08
-1.08565e-08
-4.04109e-08
-8.95402e-09
-4.18488e-08
-6.60704e-09
-3.85184e-09
-4.23325e-08
-1.0092e-09
-3.61925e-09
-3.04019e-09
-8.06627e-09
-5.5043e-09
-1.02892e-08
-8.13459e-09
-1.12315e-08
-1.08271e-08
-1.15492e-08
-1.35575e-08
-1.16204e-08
-1.63346e-08
-1.16242e-08
-1.91729e-08
-1.16216e-08
-2.20779e-08
-1.16085e-08
-2.50375e-08
-1.15475e-08
-2.80177e-08
-1.13849e-08
-3.09604e-08
-1.10612e-08
-3.37841e-08
-1.05189e-08
-3.63858e-08
-9.70905e-09
-3.8646e-08
-8.59632e-09
-4.04361e-08
-7.16396e-09
-4.16267e-08
-5.4164e-09
-3.38107e-09
-4.20975e-08
-1.0126e-09
-2.60665e-09
-3.0721e-09
-6.00677e-09
-5.59427e-09
-7.76707e-09
-8.30061e-09
-8.52512e-09
-1.10651e-08
-8.78474e-09
-1.38408e-08
-8.84472e-09
-1.6617e-08
-8.84803e-09
-1.93937e-08
-8.84485e-09
-2.21673e-08
-8.83494e-09
-2.49227e-08
-8.79211e-09
-2.76299e-08
-8.67772e-09
-3.02422e-08
-8.44882e-09
-3.26974e-08
-8.06379e-09
-3.49194e-08
-7.48706e-09
-3.68225e-08
-6.69316e-09
-3.83168e-08
-5.66972e-09
-3.93137e-08
-4.41953e-09
-2.96253e-09
-3.97322e-08
-8.89585e-10
-1.71707e-09
-2.73553e-09
-4.16083e-09
-5.02763e-09
-5.47496e-09
-7.50688e-09
-6.04587e-09
-1.00462e-08
-6.24542e-09
-1.25925e-08
-6.2984e-09
-1.51286e-08
-6.31196e-09
-1.76495e-08
-6.32396e-09
-2.01492e-08
-6.3352e-09
-2.26138e-08
-6.32755e-09
-2.50177e-08
-6.27381e-09
-2.7323e-08
-6.14351e-09
-2.948e-08
-5.90684e-09
-3.1429e-08
-5.53805e-09
-3.31039e-08
-5.01821e-09
-3.44363e-08
-4.33731e-09
-3.536e-08
-3.49582e-09
-2.50698e-09
-3.58156e-08
-6.98287e-10
-1.01878e-09
-2.19965e-09
-2.65947e-09
-4.10051e-09
-3.5741e-09
-6.17615e-09
-3.97023e-09
-8.3112e-09
-4.11036e-09
-1.04566e-08
-4.15302e-09
-1.2596e-08
-4.17256e-09
-1.47249e-08
-4.19502e-09
-1.6839e-08
-4.22112e-09
-1.89278e-08
-4.2388e-09
-2.09717e-08
-4.22991e-09
-2.29412e-08
-4.17394e-09
-2.47975e-08
-4.05058e-09
-2.64936e-08
-3.84189e-09
-2.79776e-08
-3.53421e-09
-2.91955e-08
-3.11949e-09
-3.00949e-08
-2.5964e-09
-1.97273e-09
-3.06291e-08
-4.90939e-10
-5.27839e-10
-1.61102e-09
-1.53939e-09
-3.06579e-09
-2.11933e-09
-4.66982e-09
-2.3662e-09
-6.32671e-09
-2.45347e-09
-7.99665e-09
-2.48309e-09
-9.66756e-09
-2.50165e-09
-1.13375e-08
-2.52512e-09
-1.30048e-08
-2.55383e-09
-1.46632e-08
-2.58038e-09
-1.62994e-08
-2.59366e-09
-1.78923e-08
-2.58103e-09
-1.94131e-08
-2.52978e-09
-2.08266e-08
-2.42841e-09
-2.2093e-08
-2.26782e-09
-2.31704e-08
-2.0421e-09
-2.40177e-08
-1.74915e-09
-1.39281e-09
-2.45976e-08
-3.04182e-10
-2.23656e-10
-1.06908e-09
-7.74487e-10
-2.09411e-09
-1.0943e-09
-3.23418e-09
-1.22614e-09
-4.41554e-09
-1.27211e-09
-5.60955e-09
-1.28908e-09
-6.80898e-09
-1.30221e-09
-8.01427e-09
-1.31983e-09
-9.22611e-09
-1.34199e-09
-1.04418e-08
-1.36468e-09
-1.16535e-08
-1.382e-09
-1.28474e-08
-1.38714e-09
-1.4004e-08
-1.37318e-09
-1.50987e-08
-1.33371e-09
-1.61031e-08
-1.26343e-09
-1.69865e-08
-1.15863e-09
-1.77183e-08
-1.01739e-09
-8.41061e-10
-1.827e-08
-1.57911e-10
-6.57456e-11
-6.25721e-10
-3.06678e-10
-1.27533e-09
-4.44691e-10
-2.00249e-09
-4.98979e-10
-2.75716e-09
-5.1743e-10
-3.5215e-09
-5.24743e-10
-4.29226e-09
-5.31449e-10
-5.0712e-09
-5.40894e-10
-5.86019e-09
-5.53e-10
-6.6588e-09
-5.66077e-10
-7.46315e-09
-5.77642e-10
-8.26546e-09
-5.84833e-10
-9.05395e-09
-5.84689e-10
-9.81326e-09
-5.74402e-10
-1.05251e-08
-5.51571e-10
-1.11694e-08
-5.14383e-10
-1.17252e-08
-4.61599e-10
-3.93248e-10
-1.2173e-08
-5.88553e-11
-6.89034e-12
-2.96745e-10
-6.87881e-11
-6.39077e-10
-1.02359e-10
-1.02335e-09
-1.14709e-10
-1.42204e-09
-1.18739e-10
-1.82631e-09
-1.20467e-10
-2.23541e-09
-1.22355e-10
-2.65116e-09
-1.25137e-10
-3.0754e-09
-1.28764e-10
-3.50865e-09
-1.32828e-10
-3.94955e-09
-1.36738e-10
-4.39457e-09
-1.39814e-10
-4.83793e-09
-1.41337e-10
-5.27172e-09
-1.40606e-10
-5.68629e-09
-1.37002e-10
-6.07064e-09
-1.30029e-10
-6.41303e-09
-1.19213e-10
-1.0422e-10
-6.70206e-09
-6.89034e-12
-7.56784e-11
-1.78037e-10
-2.92746e-10
-4.11486e-10
-5.31953e-10
-6.54308e-10
-7.79445e-10
-9.08209e-10
-1.04104e-09
-1.17777e-09
-1.31759e-09
-1.45893e-09
-1.59953e-09
-1.73653e-09
-1.86656e-09
-1.98578e-09
-2.09e-09
3.6635e-11
-3.6635e-11
1.95495e-10
-1.5886e-10
4.77507e-10
-2.82012e-10
8.56001e-10
-3.78494e-10
1.29349e-09
-4.37485e-10
1.74817e-09
-4.54687e-10
2.17848e-09
-4.30303e-10
2.54657e-09
-3.68093e-10
2.82105e-09
-2.74484e-10
2.97861e-09
-1.5756e-10
3.00454e-09
-2.5924e-11
2.89185e-09
1.12685e-10
2.64024e-09
2.51615e-10
2.25279e-09
3.87444e-10
1.73331e-09
5.19481e-10
1.08313e-09
6.50181e-10
2.98393e-10
7.84737e-10
-6.31842e-10
9.30235e-10
-1.72656e-09
1.09472e-09
-3.01223e-09
1.28567e-09
-4.52158e-09
1.50935e-09
-6.29158e-09
1.77e-09
-8.36101e-09
2.06942e-09
-1.0768e-08
2.40702e-09
-1.3548e-08
2.78001e-09
-1.67317e-08
3.18368e-09
-2.03433e-08
3.6116e-09
-2.4399e-08
4.05566e-09
-2.8905e-08
4.50602e-09
-3.38561e-08
4.95109e-09
-3.92336e-08
5.37751e-09
-4.5004e-08
5.77042e-09
-5.11178e-08
6.11378e-09
-5.75088e-08
6.391e-09
-6.40944e-08
6.58564e-09
-7.07767e-08
6.68226e-09
-7.7444e-08
6.66726e-09
-8.39737e-08
6.52972e-09
-9.02358e-08
6.26209e-09
-9.60965e-08
5.86077e-09
-1.01423e-07
5.32645e-09
-1.06087e-07
4.6642e-09
-1.0997e-07
3.88327e-09
-1.12967e-07
2.99664e-09
-1.14988e-07
2.02082e-09
-1.15963e-07
9.75028e-10
-1.15852e-07
-1.108e-10
-1.14611e-07
-1.24087e-09
-1.12254e-07
-2.35704e-09
-1.08808e-07
-3.44626e-09
-1.04321e-07
-4.48663e-09
-9.88641e-08
-5.45725e-09
-9.25241e-08
-6.34003e-09
-8.54043e-08
-7.11975e-09
-7.76201e-08
-7.78423e-09
-6.92956e-08
-8.32454e-09
-6.05606e-08
-8.73491e-09
-5.15479e-08
-9.01276e-09
-4.23894e-08
-9.15847e-09
-3.32143e-08
-9.17511e-09
-2.41461e-08
-9.06818e-09
-1.53009e-08
-8.8452e-09
-6.7856e-09
-8.51532e-09
1.30331e-09
-8.0889e-09
8.88126e-09
-7.57796e-09
1.58762e-08
-6.9949e-09
2.22278e-08
-6.35168e-09
2.78881e-08
-5.6603e-09
3.28227e-08
-4.93452e-09
3.70107e-08
-4.18808e-09
4.04449e-08
-3.43414e-09
4.31304e-08
-2.6855e-09
4.50848e-08
-1.95443e-09
4.63374e-08
-1.25257e-09
4.6928e-08
-5.9059e-10
4.69062e-08
2.18333e-11
4.63291e-08
5.77051e-10
4.52611e-08
1.06795e-09
4.377e-08
1.49119e-09
4.19254e-08
1.84455e-09
3.97979e-08
2.12755e-09
3.74561e-08
2.34178e-09
3.49654e-08
2.49071e-09
3.2386e-08
2.57933e-09
2.97721e-08
2.61389e-09
2.71707e-08
2.60148e-09
2.4621e-08
2.54968e-09
2.21548e-08
2.46622e-09
1.97961e-08
2.35865e-09
1.7562e-08
2.23407e-09
1.54631e-08
2.09896e-09
1.3504e-08
1.95905e-09
1.16848e-08
1.81925e-09
1.00011e-08
1.68368e-09
8.44549e-09
1.5556e-09
7.00799e-09
1.4375e-09
5.67693e-09
1.33106e-09
4.43976e-09
1.23717e-09
3.28377e-09
1.15598e-09
2.19686e-09
1.08691e-09
1.16811e-09
1.02875e-09
1.88341e-10
9.79771e-10
-7.49604e-10
9.37944e-10
-1.6506e-09
9.00993e-10
-2.51724e-09
8.66641e-10
-3.35015e-09
8.32907e-10
-4.14831e-09
7.9816e-10
-4.9095e-09
7.61199e-10
-5.63078e-09
7.21274e-10
-6.30884e-09
6.78061e-10
-6.94046e-09
6.31615e-10
-7.52275e-09
5.82299e-10
-8.05347e-09
5.30712e-10
-8.53108e-09
4.77614e-10
-8.95493e-09
4.23847e-10
-9.3252e-09
3.70277e-10
-9.64294e-09
3.17738e-10
-9.90993e-09
2.66991e-10
-1.01286e-08
2.18691e-10
-1.0302e-08
1.73373e-10
-1.04334e-08
1.31443e-10
-1.05266e-08
9.31762e-11
-1.05853e-08
5.87229e-11
-1.06134e-08
2.80976e-11
-1.06152e-08
1.75243e-12
-1.05934e-08
-2.18296e-11
-1.05521e-08
-4.12957e-11
-1.04945e-08
-5.7534e-11
-1.04237e-08
-7.0825e-11
-1.03423e-08
-8.13959e-11
-1.02528e-08
-8.95258e-11
-1.01573e-08
-9.54973e-11
-1.00577e-08
-9.9582e-11
-9.95567e-09
-1.02039e-10
-9.85256e-09
-1.03108e-10
-9.74955e-09
-1.03011e-10
-9.6476e-09
-1.01949e-10
-9.54749e-09
-1.00103e-10
-9.44986e-09
-9.76316e-11
-9.35518e-09
-9.46772e-11
-9.26382e-09
-9.13627e-11
-9.17603e-09
-8.7794e-11
-9.09197e-09
-8.40622e-11
-9.01172e-09
-8.02441e-11
-8.93532e-09
-7.64048e-11
-8.86272e-09
-7.2598e-11
-8.79385e-09
-6.88687e-11
-8.7286e-09
-6.52528e-11
-8.66682e-09
-6.17792e-11
-8.60835e-09
-5.84693e-11
-8.55301e-09
-5.53389e-11
-8.50061e-09
-5.23987e-11
-8.45096e-09
-4.96547e-11
-8.40385e-09
-4.71085e-11
-8.35909e-09
-4.47589e-11
-8.31649e-09
-4.26013e-11
-8.27586e-09
-4.06291e-11
-8.23703e-09
-3.88328e-11
-8.19982e-09
-3.72018e-11
-8.1641e-09
-3.57233e-11
-8.12972e-09
-3.43834e-11
-8.09655e-09
-3.31657e-11
-8.0645e-09
-3.20502e-11
-8.03349e-09
-3.10077e-11
-8.0035e-09
-2.99907e-11
-7.97459e-09
-2.89126e-11
-7.94697e-09
-2.7617e-11
-7.92113e-09
-2.58398e-11
-7.89795e-09
-2.31855e-11
-7.87877e-09
-1.91759e-11
-7.86532e-09
-1.34541e-11
-7.8591e-09
-6.22261e-12
-7.86055e-09
1.45415e-12
-7.86586e-09
5.30972e-12
-7.86632e-09
4.64489e-13
-7.84264e-09
-2.36803e-11
-7.7633e-09
-7.93456e-11
-7.58208e-09
-1.81215e-10
-7.21312e-09
-3.68962e-10
-9.22451e-10
-6.29067e-09
1.69598e-10
-2.06233e-10
6.14559e-10
-6.03821e-10
1.27512e-09
-9.42577e-10
2.0817e-09
-1.18507e-09
2.95295e-09
-1.30873e-09
3.80118e-09
-1.30292e-09
4.53847e-09
-1.16759e-09
5.08233e-09
-9.11956e-10
5.36044e-09
-5.52592e-10
5.31381e-09
-1.10929e-10
4.89812e-09
3.8977e-10
4.08312e-09
9.27686e-10
2.84922e-09
1.48551e-09
1.18357e-09
2.0531e-09
-9.25842e-10
2.62889e-09
-3.49571e-09
3.22005e-09
-6.55228e-09
3.84131e-09
-1.01346e-08
4.51252e-09
-1.42952e-08
5.25535e-09
-1.90992e-08
6.08968e-09
-2.46203e-08
7.03042e-09
-3.09354e-08
8.08512e-09
-3.81187e-08
9.25277e-09
-4.62352e-08
1.05235e-08
-5.53344e-08
1.18791e-08
-6.54445e-08
1.32938e-08
-7.65677e-08
1.47348e-08
-8.86752e-08
1.61632e-08
-1.01704e-07
1.75348e-08
-1.15554e-07
1.8801e-08
-1.30087e-07
1.99105e-08
-1.45128e-07
2.08112e-08
-1.60467e-07
2.1453e-08
-1.75866e-07
2.179e-08
-1.91064e-07
2.17837e-08
-2.05787e-07
2.14049e-08
-2.19755e-07
2.06358e-08
-2.32696e-07
1.94706e-08
-2.4435e-07
1.79161e-08
-2.5448e-07
1.59911e-08
-2.62879e-07
1.37255e-08
-2.69374e-07
1.11586e-08
-2.73828e-07
8.33766e-09
-2.76147e-07
5.31513e-09
-2.76273e-07
2.1469e-09
-2.74193e-07
-1.10472e-09
-2.69928e-07
-4.37602e-09
-2.63568e-07
-7.60096e-09
-2.55201e-07
-1.07234e-08
-2.44953e-07
-1.36944e-08
-2.32971e-07
-1.64693e-08
-2.19419e-07
-1.90089e-08
-2.04479e-07
-2.12798e-08
-1.88344e-07
-2.3255e-08
-1.71214e-07
-2.49136e-08
-1.53297e-07
-2.62416e-08
-1.34801e-07
-2.72309e-08
-1.15934e-07
-2.788e-08
-9.69002e-08
-2.81925e-08
-7.78977e-08
-2.81776e-08
-5.91171e-08
-2.78488e-08
-4.07388e-08
-2.72235e-08
-2.29322e-08
-2.6322e-08
-5.85398e-09
-2.51671e-08
1.03508e-08
-2.37827e-08
2.55493e-08
-2.21935e-08
3.96273e-08
-2.04296e-08
5.2488e-08
-1.8521e-08
6.40507e-08
-1.64973e-08
7.42513e-08
-1.43886e-08
8.30432e-08
-1.22261e-08
9.0399e-08
-1.00413e-08
9.63107e-08
-7.86616e-09
1.00791e-07
-5.73275e-09
1.03873e-07
-3.67241e-09
1.0561e-07
-1.71517e-09
1.06075e-07
1.11724e-10
1.0536e-07
1.7829e-09
1.03574e-07
3.27776e-09
1.00835e-07
4.58331e-09
9.72734e-08
5.68899e-09
9.30238e-08
6.5913e-09
8.82219e-08
7.29261e-09
8.30005e-08
7.80081e-09
7.74856e-08
8.12875e-09
7.17938e-08
8.29332e-09
6.6029e-08
8.3144e-09
6.02815e-08
8.21376e-09
5.46263e-08
8.01386e-09
4.91235e-08
7.7369e-09
4.38184e-08
7.40398e-09
3.8743e-08
7.03447e-09
3.39167e-08
6.64559e-09
2.93482e-08
6.25222e-09
2.50371e-08
5.8667e-09
2.09757e-08
5.49888e-09
1.71508e-08
5.15597e-09
1.35453e-08
4.84264e-09
1.01403e-08
4.56099e-09
6.91648e-09
4.31071e-09
3.85591e-09
4.08932e-09
9.43047e-10
3.89263e-09
-1.83433e-09
3.71532e-09
-4.48455e-09
3.55122e-09
-7.01184e-09
3.39393e-09
-9.41684e-09
3.2379e-09
-1.16973e-08
3.07863e-09
-1.3849e-08
2.91292e-09
-1.58667e-08
2.73894e-09
-1.77448e-08
2.55613e-09
-1.94782e-08
2.36508e-09
-2.10632e-08
2.16726e-09
-2.24973e-08
1.96482e-09
-2.378e-08
1.76034e-09
-2.49128e-08
1.55658e-09
-2.58988e-08
1.3563e-09
-2.67432e-08
1.16211e-09
-2.74525e-08
9.76328e-10
-2.80347e-08
8.00896e-10
-2.84987e-08
6.37352e-10
-2.8854e-08
4.86806e-10
-2.91108e-08
3.49948e-10
-2.92792e-08
2.27085e-10
-2.93693e-08
1.18193e-10
-2.93906e-08
2.30518e-11
-2.93531e-08
-5.92841e-11
-2.92653e-08
-1.29136e-10
-2.91353e-08
-1.8748e-10
-2.89708e-08
-2.35329e-10
-2.87786e-08
-2.73657e-10
-2.85646e-08
-3.03457e-10
-2.83344e-08
-3.25707e-10
-2.80927e-08
-3.41351e-10
-2.78434e-08
-3.51276e-10
-2.75902e-08
-3.56312e-10
-2.7336e-08
-3.57217e-10
-2.70833e-08
-3.54684e-10
-2.68341e-08
-3.49331e-10
-2.659e-08
-3.41714e-10
-2.63523e-08
-3.32321e-10
-2.61221e-08
-3.21582e-10
-2.59e-08
-3.09866e-10
-2.56866e-08
-2.97497e-10
-2.54821e-08
-2.84747e-10
-2.52867e-08
-2.7185e-10
-2.51002e-08
-2.59e-10
-2.49228e-08
-2.4636e-10
-2.47539e-08
-2.3406e-10
-2.45935e-08
-2.22207e-10
-2.44411e-08
-2.10882e-10
-2.42963e-08
-2.00145e-10
-2.41587e-08
-1.90039e-10
-2.40277e-08
-1.80589e-10
-2.3903e-08
-1.71808e-10
-2.37841e-08
-1.63694e-10
-2.36705e-08
-1.56239e-10
-2.35617e-08
-1.49421e-10
-2.34573e-08
-1.43216e-10
-2.33569e-08
-1.3759e-10
-2.32601e-08
-1.32505e-10
-2.31666e-08
-1.27918e-10
-2.3076e-08
-1.23778e-10
-2.2988e-08
-1.20022e-10
-2.29024e-08
-1.16555e-10
-2.28192e-08
-1.13219e-10
-2.27384e-08
-1.09734e-10
-2.26604e-08
-1.05593e-10
-2.25863e-08
-9.9959e-11
-2.25179e-08
-9.16223e-11
-2.24578e-08
-7.92102e-11
-2.24094e-08
-6.19123e-11
-2.23746e-08
-4.09755e-11
-2.23513e-08
-2.18998e-11
-2.23286e-08
-1.73547e-11
-2.22801e-08
-4.80578e-11
-2.21588e-08
-1.44964e-10
-2.18907e-08
-3.47449e-10
-2.13689e-08
-7.02995e-10
-2.04329e-08
-1.30501e-09
-2.4816e-09
-1.88737e-08
2.35264e-10
-4.41497e-10
8.16356e-10
-1.18491e-09
1.62871e-09
-1.75493e-09
2.55824e-09
-2.1146e-09
3.48645e-09
-2.23694e-09
4.29236e-09
-2.10883e-09
4.8571e-09
-1.73233e-09
5.06908e-09
-1.12394e-09
4.82852e-09
-3.12033e-10
4.05055e-09
6.67043e-10
2.66628e-09
1.77404e-09
6.2133e-10
2.97264e-09
-2.12786e-09
4.2347e-09
-5.61924e-09
5.54448e-09
-9.89141e-09
6.90106e-09
-1.49895e-08
8.31814e-09
-2.09696e-08
9.82136e-09
-2.79003e-08
1.14433e-08
-3.5862e-08
1.3217e-08
-4.49415e-08
1.51692e-08
-5.52253e-08
1.73142e-08
-6.67901e-08
1.965e-08
-7.96931e-08
2.21557e-08
-9.39619e-08
2.47923e-08
-1.09586e-07
2.75034e-08
-1.2651e-07
3.02174e-08
-1.44626e-07
3.28511e-08
-1.63775e-07
3.53119e-08
-1.83742e-07
3.75024e-08
-2.04266e-07
3.93245e-08
-2.2504e-07
4.06844e-08
-2.45726e-07
4.14978e-08
-2.65968e-07
4.16949e-08
-2.85403e-07
4.12242e-08
-3.03674e-07
4.00552e-08
-3.20449e-07
3.81799e-08
-3.35426e-07
3.56124e-08
-3.48343e-07
3.23877e-08
-3.58986e-07
2.8559e-08
-3.67189e-07
2.41944e-08
-3.72837e-07
1.93737e-08
-3.75863e-07
1.4185e-08
-3.76246e-07
8.72077e-09
-3.74007e-07
3.07542e-09
-3.69205e-07
-2.65469e-09
-3.61952e-07
-8.35798e-09
-3.52375e-07
-1.39529e-08
-3.40613e-07
-1.9363e-08
-3.26819e-07
-2.45179e-08
-3.1116e-07
-2.93529e-08
-2.93818e-07
-3.3811e-08
-2.74984e-07
-3.78429e-08
-2.54857e-07
-4.14072e-08
-2.33641e-07
-4.44713e-08
-2.11543e-07
-4.70109e-08
-1.88774e-07
-4.90106e-08
-1.65542e-07
-5.04635e-08
-1.42051e-07
-5.13707e-08
-1.18502e-07
-5.17412e-08
-9.50894e-08
-5.15905e-08
-7.1998e-08
-5.09402e-08
-4.94047e-08
-4.98167e-08
-2.74765e-08
-4.82502e-08
-6.37038e-09
-4.62732e-08
1.37648e-08
-4.39179e-08
3.27942e-08
-4.12228e-08
5.05971e-08
-3.82324e-08
6.70643e-08
-3.49882e-08
8.20987e-08
-3.15317e-08
9.56158e-08
-2.79058e-08
1.07546e-07
-2.41558e-08
1.17833e-07
-2.03291e-08
1.26443e-07
-1.64754e-08
1.33356e-07
-1.26459e-08
1.38576e-07
-8.89302e-09
1.4213e-07
-5.26897e-09
1.44066e-07
-1.82449e-09
1.44457e-07
1.39256e-09
1.43395e-07
4.33967e-09
1.40996e-07
6.9822e-09
1.37392e-07
9.29252e-09
1.32731e-07
1.12531e-08
1.27166e-07
1.28571e-08
1.20859e-07
1.41081e-08
1.13968e-07
1.50195e-08
1.06648e-07
1.56138e-08
9.90413e-08
1.59207e-08
9.12798e-08
1.59753e-08
8.34778e-08
1.58159e-08
7.57328e-08
1.54819e-08
6.81245e-08
1.50122e-08
6.07154e-08
1.44436e-08
5.35513e-08
1.38096e-08
4.66636e-08
1.314e-08
4.00703e-08
1.246e-08
3.37787e-08
1.17904e-08
2.77874e-08
1.11474e-08
2.2088e-08
1.0542e-08
1.66684e-08
9.98064e-09
1.15139e-08
9.46515e-09
6.61018e-09
8.99309e-09
1.94412e-09
8.55869e-09
-2.4945e-09
8.15394e-09
-6.71246e-09
7.76917e-09
-1.07126e-08
7.39408e-09
-1.44943e-08
7.01963e-09
-1.80544e-08
6.63872e-09
-2.13881e-08
6.2466e-09
-2.44901e-08
5.84091e-09
-2.73555e-08
5.42159e-09
-2.9981e-08
4.99051e-09
-3.23648e-08
4.55109e-09
-3.45078e-08
4.1078e-09
-3.64132e-08
3.66575e-09
-3.80869e-08
3.23027e-09
-3.95371e-08
2.80651e-09
-4.07742e-08
2.39921e-09
-4.18103e-08
2.01248e-09
-4.26591e-08
1.64969e-09
-4.33351e-08
1.31335e-09
-4.38535e-08
1.00518e-09
-4.42296e-08
7.26108e-10
-4.44789e-08
4.76334e-10
-4.46162e-08
2.55458e-10
-4.46557e-08
6.25565e-11
-4.46112e-08
-1.03786e-10
-4.44952e-08
-2.45115e-10
-4.43194e-08
-3.63309e-10
-4.40943e-08
-4.60367e-10
-4.38296e-08
-5.3832e-10
-4.35339e-08
-5.99192e-10
-4.32147e-08
-6.44954e-10
-4.28785e-08
-6.77489e-10
-4.25312e-08
-6.98569e-10
-4.21777e-08
-7.09836e-10
-4.18221e-08
-7.12799e-10
-4.1468e-08
-7.08826e-10
-4.11182e-08
-6.99148e-10
-4.0775e-08
-6.84862e-10
-4.04404e-08
-6.66942e-10
-4.01157e-08
-6.46241e-10
-3.98021e-08
-6.23504e-10
-3.95002e-08
-5.99373e-10
-3.92106e-08
-5.74402e-10
-3.89334e-08
-5.49061e-10
-3.86686e-08
-5.23745e-10
-3.84162e-08
-4.98785e-10
-3.81758e-08
-4.7445e-10
-3.79471e-08
-4.50958e-10
-3.77295e-08
-4.28479e-10
-3.75225e-08
-4.07139e-10
-3.73255e-08
-3.8703e-10
-3.71378e-08
-3.68211e-10
-3.69589e-08
-3.5071e-10
-3.67881e-08
-3.34536e-10
-3.66247e-08
-3.19673e-10
-3.6468e-08
-3.06091e-10
-3.63175e-08
-2.93743e-10
-3.61725e-08
-2.82572e-10
-3.60325e-08
-2.72512e-10
-3.58969e-08
-2.63485e-10
-3.57653e-08
-2.55402e-10
-3.56372e-08
-2.48148e-10
-3.55122e-08
-2.41552e-10
-3.53901e-08
-2.35324e-10
-3.52709e-08
-2.28944e-10
-3.5155e-08
-2.21491e-10
-3.50434e-08
-2.1147e-10
-3.49383e-08
-1.96788e-10
-3.48422e-08
-1.75243e-10
-3.47582e-08
-1.46005e-10
-3.46866e-08
-1.12538e-10
-3.46216e-08
-8.68802e-11
-3.45447e-08
-9.42505e-11
-3.44171e-08
-1.75714e-10
-3.41741e-08
-3.8788e-10
-3.37217e-08
-7.99889e-10
-3.29316e-08
-1.49309e-09
-3.16761e-08
-2.56053e-09
-4.2116e-09
-2.99461e-08
2.28539e-10
-6.70036e-10
7.72652e-10
-1.72903e-09
1.49041e-09
-2.47269e-09
2.23724e-09
-2.86143e-09
2.86591e-09
-2.86561e-09
3.22951e-09
-2.47243e-09
3.18597e-09
-1.6888e-09
2.6028e-09
-5.40763e-10
1.36098e-09
9.29785e-10
-6.42688e-10
2.67071e-09
-3.49586e-09
4.62721e-09
-7.27313e-09
6.7499e-09
-1.20405e-08
9.00211e-09
-1.78612e-08
1.13651e-08
-2.48006e-08
1.38405e-08
-3.29311e-08
1.64486e-08
-4.2333e-08
1.92233e-08
-5.30925e-08
2.22028e-08
-6.52954e-08
2.54199e-08
-7.90174e-08
2.88913e-08
-9.43125e-08
3.26093e-08
-1.112e-07
3.65375e-08
-1.29653e-07
4.06089e-08
-1.49589e-07
4.47283e-08
-1.70863e-07
4.8777e-08
-1.93264e-07
5.26186e-08
-2.16519e-07
5.61065e-08
-2.40299e-07
5.9092e-08
-2.64229e-07
6.14323e-08
-2.87904e-07
6.29991e-08
-3.10906e-07
6.36861e-08
-3.32823e-07
6.34147e-08
-3.53266e-07
6.21385e-08
-3.71886e-07
5.98439e-08
-3.88381e-07
5.65502e-08
-4.02507e-07
5.2306e-08
-4.1408e-07
4.71852e-08
-4.22974e-07
4.12816e-08
-4.29118e-07
3.47038e-08
-4.32493e-07
2.75693e-08
-4.3312e-07
2.00006e-08
-4.31056e-07
1.21212e-08
-4.26389e-07
4.05317e-09
-4.19232e-07
-4.08099e-09
-4.09729e-07
-1.21582e-08
-3.98008e-07
-2.00787e-08
-3.84204e-07
-2.77567e-08
-3.68462e-07
-3.51053e-08
-3.50936e-07
-4.20435e-08
-3.31792e-07
-4.84976e-08
-3.11201e-07
-5.44021e-08
-2.89343e-07
-5.97002e-08
-2.66406e-07
-6.43447e-08
-2.42579e-07
-6.82983e-08
-2.18056e-07
-7.1534e-08
-1.93031e-07
-7.40358e-08
-1.67696e-07
-7.5798e-08
-1.42242e-07
-7.68251e-08
-1.16852e-07
-7.71312e-08
-9.17035e-08
-7.67388e-08
-6.69664e-08
-7.56772e-08
-4.28016e-08
-7.39816e-08
-1.93612e-08
-7.16906e-08
3.20985e-09
-6.88442e-08
2.47783e-08
-6.54863e-08
4.52256e-08
-6.16702e-08
6.44392e-08
-5.7446e-08
8.23125e-08
-5.28616e-08
9.8748e-08
-4.79672e-08
1.13657e-07
-4.28152e-08
1.26963e-07
-3.74616e-08
1.386e-07
-3.1966e-08
1.48517e-07
-2.63922e-08
1.56679e-07
-2.08078e-08
1.63069e-07
-1.52835e-08
1.67692e-07
-9.89216e-09
1.70575e-07
-4.70657e-09
1.71765e-07
2.02399e-10
1.71335e-07
4.76892e-09
1.69382e-07
8.93559e-09
1.6602e-07
1.26541e-08
1.61385e-07
1.58881e-08
1.55626e-07
1.86161e-08
1.48903e-07
2.08314e-08
1.4138e-07
2.25425e-08
1.33222e-07
2.37721e-08
1.24587e-07
2.45552e-08
1.15626e-07
2.49367e-08
1.06474e-07
2.49682e-08
9.72503e-08
2.47052e-08
8.80588e-08
2.42037e-08
7.89844e-08
2.3518e-08
7.00955e-08
2.26985e-08
6.14446e-08
2.17909e-08
5.30698e-08
2.08347e-08
4.49973e-08
1.9863e-08
3.72425e-08
1.89022e-08
2.98128e-08
1.79717e-08
2.27095e-08
1.70839e-08
1.59301e-08
1.62446e-08
9.47014e-09
1.54531e-08