/*--------------------------------*- C++ -*----------------------------------*\
  =========                 |
  \\      /  F ield         | OpenFOAM: The Open Source CFD Toolbox
   \\    /   O peration     | Website:  https://openfoam.org
    \\  /    A nd           | Version:  8
     \\/     M anipulation  |
\*---------------------------------------------------------------------------*/
FoamFile
{
    version     2.0;
    format      ascii;
    class       volVectorField;
    location    "0.4";
    object      U;
}
// * * * * * * * * * * * * * * * * * * * * * * * * * * * * * * * * * * * * * //

dimensions      [0 1 -1 0 0 0 0];

internalField   nonuniform List<vector> 
12225
(
(-7.96642e-06 9.15829e-07 0)
(2.38793e-05 -1.94961e-06 0)
(9.63559e-05 -2.85543e-06 0)
(0.000181481 -3.42432e-06 0)
(0.000280206 -4.2113e-06 0)
(0.000404267 -5.67303e-06 0)
(0.000571138 -8.02323e-06 0)
(0.000798388 -1.13099e-05 0)
(0.00109947 -1.5384e-05 0)
(0.00147983 -1.98982e-05 0)
(0.00193429 -2.43656e-05 0)
(0.00244672 -2.83356e-05 0)
(0.00299347 -3.17511e-05 0)
(0.00355036 -3.54228e-05 0)
(0.00410349 -4.10201e-05 0)
(0.00465945 -4.41253e-05 0)
(0.00526845 -9.96706e-05 0)
(0.00341955 0.00129185 0)
(-1.23459e-05 -2.93795e-06 0)
(9.22032e-05 -2.50228e-05 0)
(0.000302341 -3.71368e-05 0)
(0.000551511 -4.51653e-05 0)
(0.000843702 -5.69779e-05 0)
(0.00121258 -7.75355e-05 0)
(0.00170672 -0.00010931 0)
(0.00237396 -0.00015241 0)
(0.00324933 -0.000204414 0)
(0.00434431 -0.000260356 0)
(0.00563966 -0.000313379 0)
(0.00708421 -0.000356372 0)
(0.00860179 -0.000384444 0)
(0.010103 -0.000397041 0)
(0.0114951 -0.000393892 0)
(0.0126352 -0.000332875 0)
(0.013266 4.27689e-05 0)
(0.00934069 0.00333054 0)
(-8.35721e-06 -1.56016e-05 0)
(0.000178566 -7.46736e-05 0)
(0.000523883 -0.000109625 0)
(0.000935197 -0.000134437 0)
(0.00142081 -0.000170753 0)
(0.00203494 -0.000232323 0)
(0.00285382 -0.000325835 0)
(0.00395108 -0.000451006 0)
(0.00537839 -0.00060021 0)
(0.00714871 -0.000758542 0)
(0.00922518 -0.00090556 0)
(0.0115185 -0.00101922 0)
(0.0138941 -0.0010808 0)
(0.016182 -0.00107608 0)
(0.0181724 -0.00097521 0)
(0.0195068 -0.000626711 0)
(0.0195765 0.000663643 0)
(0.0146481 0.00616285 0)
(1.15452e-06 -4.13149e-05 0)
(0.00027732 -0.000156545 0)
(0.000755117 -0.00022716 0)
(0.00132525 -0.000279889 0)
(0.00200105 -0.000356699 0)
(0.00285519 -0.000484518 0)
(0.0039873 -0.000676089 0)
(0.00549165 -0.000929884 0)
(0.00743133 -0.00122949 0)
(0.00981658 -0.00154387 0)
(0.0125903 -0.00183059 0)
(0.0156236 -0.00204251 0)
(0.018721 -0.00213471 0)
(0.0216252 -0.00206138 0)
(0.0239998 -0.00173152 0)
(0.025303 -0.000834592 0)
(0.0247465 0.00173741 0)
(0.0195494 0.00939677 0)
(1.39958e-05 -8.37899e-05 0)
(0.000383303 -0.000274621 0)
(0.000990409 -0.000393631 0)
(0.00171462 -0.000486282 0)
(0.00257402 -0.000620697 0)
(0.00365683 -0.000840962 0)
(0.00508105 -0.00116725 0)
(0.00695596 -0.00159548 0)
(0.00935093 -0.00209646 0)
(0.01227 -0.00261649 0)
(0.015635 -0.00308231 0)
(0.0192786 -0.00341056 0)
(0.0229475 -0.00351579 0)
(0.0263023 -0.00330115 0)
(0.0288988 -0.00259018 0)
(0.0300897 -0.000908707 0)
(0.0290846 0.00310532 0)
(0.0241016 0.0126291 0)
(2.8519e-05 -0.000146197 0)
(0.000492092 -0.000433313 0)
(0.00122472 -0.000613712 0)
(0.0020969 -0.00075897 0)
(0.00312998 -0.000968669 0)
(0.00442386 -0.00130755 0)
(0.00610934 -0.00180413 0)
(0.0083048 -0.00245011 0)
(0.0110812 -0.00319931 0)
(0.0144343 -0.00396883 0)
(0.0182657 -0.00464581 0)
(0.022375 -0.00509948 0)
(0.0264602 -0.00518983 0)
(0.0301176 -0.00475274 0)
(0.0328316 -0.00351691 0)
(0.0339316 -0.000878031 0)
(0.03274 0.00460084 0)
(0.0282855 0.0156605 0)
(4.34844e-05 -0.000231333 0)
(0.00060001 -0.000637246 0)
(0.00145371 -0.000892503 0)
(0.00246655 -0.00110331 0)
(0.00366027 -0.00140567 0)
(0.00514173 -0.00188801 0)
(0.00704837 -0.00258769 0)
(0.00950187 -0.00349023 0)
(0.0125708 -0.00452842 0)
(0.0162419 -0.00558402 0)
(0.0204005 -0.00649658 0)
(0.0248217 -0.00707781 0)
(0.0291705 -0.00712154 0)
(0.0330049 -0.00638679 0)
(0.0357822 -0.00451311 0)
(0.0368731 -0.000818633 0)
(0.0357607 0.00606763 0)
(0.0320394 0.0183789 0)
(5.80344e-05 -0.000341631 0)
(0.000704326 -0.000891032 0)
(0.00167413 -0.00123522 0)
(0.00281938 -0.00152422 0)
(0.00415809 -0.00193514 0)
(0.00579849 -0.00258262 0)
(0.00787827 -0.00351297 0)
(0.0105169 -0.00470368 0)
(0.0137775 -0.00606285 0)
(0.0176388 -0.00743194 0)
(0.0219759 -0.00859645 0)
(0.0265521 -0.00930303 0)
(0.0310191 -0.00927195 0)
(0.0349269 -0.00818338 0)
(0.0377478 -0.00560427 0)
(0.0389337 -0.000829869 0)
(0.0381277 0.00735459 0)
(0.0352711 0.0206806 0)
(7.16482e-05 -0.000479204 0)
(0.000803295 -0.00119925 0)
(0.00188383 -0.00164708 0)
(0.00315261 -0.00202602 0)
(0.00461872 -0.00255854 0)
(0.00638552 -0.00338756 0)
(0.00858451 -0.00456828 0)
(0.0113279 -0.00606856 0)
(0.0146716 -0.00776924 0)
(0.0185888 -0.00946818 0)
(0.0229525 -0.0108931 0)
(0.0275287 -0.0117215 0)
(0.0319782 -0.011598 0)
(0.0358725 -0.0101286 0)
(0.0387323 -0.00682931 0)
(0.0401091 -0.00101802 0)
(0.0397784 0.00831911 0)
(0.0378645 0.0224601 0)
(8.40369e-05 -0.00064584 0)
(0.000895954 -0.00156637 0)
(0.00208148 -0.00213325 0)
(0.00346435 -0.00261225 0)
(0.00503897 -0.00327514 0)
(0.00689726 -0.00429466 0)
(0.00915828 -0.00573484 0)
(0.0119227 -0.007553 0)
(0.0152382 -0.00960164 0)
(0.0190763 -0.0116342 0)
(0.0233173 -0.0133202 0)
(0.027745 -0.0142685 0)
(0.0320509 -0.0140508 0)
(0.0358537 -0.0122088 0)
(0.0387452 -0.00822898 0)
(0.0403785 -0.0014824 0)
(0.0406265 0.00883429 0)
(0.0396884 0.0236136 0)
(9.51058e-05 -0.00084378 0)
(0.0009816 -0.00199717 0)
(0.00226551 -0.00269928 0)
(0.00375216 -0.00328634 0)
(0.0054155 -0.00408272 0)
(0.00732945 -0.00529221 0)
(0.00959495 -0.0069878 0)
(0.0122975 -0.00911637 0)
(0.0154766 -0.0115031 0)
(0.0191062 -0.0138591 0)
(0.0230834 -0.0157991 0)
(0.027224 -0.0168684 0)
(0.0312685 -0.0165736 0)
(0.0349022 -0.0144043 0)
(0.0378012 -0.00983455 0)
(0.0397131 -0.00230379 0)
(0.0405768 0.00879548 0)
(0.0406045 0.024043 0)
(0.000104104 -0.00105577 0)
(0.00105231 -0.00245393 0)
(0.00241813 -0.0032956 0)
(0.0039886 -0.00398672 0)
(0.00571396 -0.00490217 0)
(0.00764615 -0.00627522 0)
(0.00986496 -0.00818759 0)
(0.0124394 -0.0105779 0)
(0.0154019 -0.0132493 0)
(0.0187323 -0.015879 0)
(0.0223501 -0.0180383 0)
(0.0261114 -0.0192224 0)
(0.0298138 -0.0188881 0)
(0.0332154 -0.0164892 0)
(0.0360739 -0.0114996 0)
(0.0382138 -0.00342358 0)
(0.039616 0.00819361 0)
(0.0404789 0.0237083 0)
(0.00011259 -0.00129293 0)
(0.00111396 -0.00296172 0)
(0.00255028 -0.0039547 0)
(0.00419133 -0.00475094 0)
(0.00596002 -0.00577648 0)
(0.00788265 -0.00729426 0)
(0.0100149 -0.00939544 0)
(0.0124079 -0.0120126 0)
(0.0150867 -0.0149311 0)
(0.0180398 -0.0178012 0)
(0.0212133 -0.0201595 0)
(0.0245093 -0.0214617 0)
(0.0277897 -0.0211261 0)
(0.03089 -0.0185801 0)
(0.0336496 -0.013303 0)
(0.0359614 -0.00485725 0)
(0.0378324 0.00708568 0)
(0.0394401 0.0227084 0)
(0.00012119 -0.00159603 0)
(0.00116825 -0.00361311 0)
(0.00266468 -0.00479466 0)
(0.00436349 -0.00571013 0)
(0.00615388 -0.0068442 0)
(0.00802915 -0.00849348 0)
(0.0100148 -0.0107613 0)
(0.0121397 -0.0135776 0)
(0.0144209 -0.0167146 0)
(0.016858 -0.019803 0)
(0.0194306 -0.0223541 0)
(0.0220971 -0.0237945 0)
(0.0247964 -0.0235137 0)
(0.0274538 -0.0209219 0)
(0.0299989 -0.0155069 0)
(0.032395 -0.00688383 0)
(0.0346735 0.00517053 0)
(0.0369863 0.0206987 0)
(0.000127746 -0.00197811 0)
(0.00119791 -0.00443824 0)
(0.00272298 -0.00585217 0)
(0.0044439 -0.00689697 0)
(0.00621347 -0.00812259 0)
(0.00798595 -0.00986235 0)
(0.00975125 -0.0122357 0)
(0.011512 -0.0151761 0)
(0.013276 -0.0184534 0)
(0.0150546 -0.0216932 0)
(0.0168642 -0.0243997 0)
(0.0187249 -0.0259901 0)
(0.0206583 -0.0258438 0)
(0.0226861 -0.0233657 0)
(0.0248321 -0.0180545 0)
(0.0271322 -0.00956318 0)
(0.0296483 0.00225943 0)
(0.03251 0.0173587 0)
(0.000128044 -0.00244423 0)
(0.0011688 -0.00545011 0)
(0.00265022 -0.00714351 0)
(0.00431389 -0.00832047 0)
(0.005982 -0.00959925 0)
(0.00756845 -0.011351 0)
(0.0090249 -0.0137158 0)
(0.0103253 -0.0166406 0)
(0.0114652 -0.0199097 0)
(0.0124648 -0.0231666 0)
(0.0133731 -0.0259369 0)
(0.0142668 -0.0276589 0)
(0.0152451 -0.0277304 0)
(0.0164211 -0.0255704 0)
(0.0179103 -0.0206908 0)
(0.0198234 -0.0127635 0)
(0.0222653 -0.00166708 0)
(0.0253566 0.0125024 0)
(0.00011512 -0.0029738 0)
(0.00102527 -0.00660775 0)
(0.00232441 -0.0086192 0)
(0.0037802 -0.00992043 0)
(0.00520399 -0.0111919 0)
(0.00647775 -0.0128387 0)
(0.00751854 -0.015025 0)
(0.00827205 -0.0177238 0)
(0.00871777 -0.0207544 0)
(0.00887632 -0.0238079 0)
(0.00881476 -0.0264676 0)
(0.00864712 -0.0282335 0)
(0.00852852 -0.0285604 0)
(0.00864201 -0.026911 0)
(0.00918001 -0.0228224 0)
(0.0103245 -0.0159708 0)
(0.0122344 -0.00622306 0)
(0.0150503 0.00634379 0)
(7.98822e-05 -0.00348749 0)
(0.000699317 -0.00774463 0)
(0.00159526 -0.0100749 0)
(0.00260134 -0.0114765 0)
(0.00355507 -0.012668 0)
(0.00432908 -0.0140741 0)
(0.00481989 -0.0158811 0)
(0.00495181 -0.0180968 0)
(0.00468692 -0.0205951 0)
(0.00403445 -0.0231428 0)
(0.00305751 -0.0254172 0)
(0.00187539 -0.0270233 0)
(0.000659817 -0.0275197 0)
(-0.000377292 -0.026456 0)
(-0.00100213 -0.0234249 0)
(-0.000982632 -0.0181165 0)
(-0.000106824 -0.0103659 0)
(0.0018018 -0.000182136 0)
(1.22061e-05 -0.00380476 0)
(0.000132985 -0.00847069 0)
(0.000333065 -0.0110199 0)
(0.000562826 -0.0124638 0)
(0.00073573 -0.0135064 0)
(0.000751408 -0.0145615 0)
(0.00051289 -0.0158232 0)
(-5.85254e-05 -0.0173324 0)
(-0.00101075 -0.0190236 0)
(-0.00235144 -0.0207515 0)
(-0.00404103 -0.0223068 0)
(-0.00598875 -0.0234277 0)
(-0.00805298 -0.0238136 0)
(-0.0100474 -0.023148 0)
(-0.0117542 -0.0211288 0)
(-0.0129432 -0.0175043 0)
(-0.0133841 -0.0121073 0)
(-0.0128734 -0.00488209 0)
(-6.73332e-05 -0.00366765 0)
(-0.000523344 -0.00820421 0)
(-0.0011329 -0.0107018 0)
(-0.00181049 -0.0120808 0)
(-0.00254176 -0.0129703 0)
(-0.0033738 -0.0137408 0)
(-0.00437059 -0.0145727 0)
(-0.00559026 -0.0155195 0)
(-0.00707233 -0.0165505 0)
(-0.00882937 -0.0175774 0)
(-0.0108412 -0.0184679 0)
(-0.0130512 -0.0190555 0)
(-0.0153646 -0.0191489 0)
(-0.0176506 -0.0185454 0)
(-0.0197486 -0.0170488 0)
(-0.0214796 -0.0144892 0)
(-0.0226519 -0.0107444 0)
(-0.0230857 -0.00575824 0)
(-0.000127805 -0.0032385 0)
(-0.0010612 -0.00731292 0)
(-0.00234424 -0.00958696 0)
(-0.0037807 -0.0108361 0)
(-0.00527316 -0.0115968 0)
(-0.00682126 -0.0121894 0)
(-0.00845552 -0.012774 0)
(-0.01021 -0.0134046 0)
(-0.0121091 -0.0140673 0)
(-0.0141596 -0.0147027 0)
(-0.0163458 -0.0152195 0)
(-0.0186264 -0.0155027 0)
(-0.0209334 -0.0154217 0)
(-0.0231728 -0.0148393 0)
(-0.0252285 -0.0136238 0)
(-0.0269694 -0.0116615 0)
(-0.0282508 -0.00886979 0)
(-0.0289352 -0.00520861 0)
(-0.000171922 -0.00263582 0)
(-0.00147165 -0.00604914 0)
(-0.00327981 -0.00799409 0)
(-0.00531402 -0.00906721 0)
(-0.00741434 -0.00970341 0)
(-0.00954234 -0.0101694 0)
(-0.0117002 -0.0106013 0)
(-0.0139013 -0.0110483 0)
(-0.0161556 -0.0115046 0)
(-0.0184619 -0.011929 0)
(-0.0208026 -0.0122559 0)
(-0.023142 -0.0124031 0)
(-0.0254251 -0.0122778 0)
(-0.0275788 -0.0117839 0)
(-0.029515 -0.0108306 0)
(-0.0311357 -0.00934025 0)
(-0.0323331 -0.00725757 0)
(-0.0330045 -0.00455691 0)
(-0.00019078 -0.00197776 0)
(-0.00169472 -0.00465927 0)
(-0.00381588 -0.00622943 0)
(-0.0062176 -0.00710152 0)
(-0.00870188 -0.00761313 0)
(-0.0112044 -0.00797856 0)
(-0.0137076 -0.00830856 0)
(-0.0162112 -0.00864487 0)
(-0.0187156 -0.00898602 0)
(-0.0212138 -0.009303 0)
(-0.023686 -0.00954844 0)
(-0.0260979 -0.00966255 0)
(-0.0284 -0.00957814 0)
(-0.0305293 -0.00922601 0)
(-0.0324122 -0.00854092 0)
(-0.0339693 -0.00746765 0)
(-0.0351146 -0.00596681 0)
(-0.0357665 -0.00402109 0)
(-0.000182008 -0.00136167 0)
(-0.00171344 -0.00334088 0)
(-0.00391947 -0.0045372 0)
(-0.00643951 -0.0052036 0)
(-0.00905946 -0.00559254 0)
(-0.0117006 -0.00586948 0)
(-0.0143347 -0.00612019 0)
(-0.0169548 -0.00637776 0)
(-0.0195577 -0.00664274 0)
(-0.0221342 -0.00689523 0)
(-0.0246645 -0.0071018 0)
(-0.0271159 -0.00721985 0)
(-0.0294427 -0.0072013 0)
(-0.0315876 -0.00699644 0)
(-0.0334848 -0.00655809 0)
(-0.0350644 -0.0058459 0)
(-0.0362524 -0.00483051 0)
(-0.0369784 -0.00349903 0)
(-0.000149795 -0.000850577 0)
(-0.00155502 -0.00221903 0)
(-0.00364556 -0.0030736 0)
(-0.00606042 -0.00354715 0)
(-0.00858665 -0.00382191 0)
(-0.0111409 -0.00401907 0)
(-0.0136922 -0.00420098 0)
(-0.0162325 -0.00439194 0)
(-0.018759 -0.00459319 0)
(-0.021264 -0.00479174 0)
(-0.0237304 -0.00496521 0)
(-0.0261291 -0.00508473 0)
(-0.0284192 -0.00511739 0)
(-0.030549 -0.00502873 0)
(-0.0324591 -0.00478562 0)
(-0.034086 -0.00435903 0)
(-0.0353636 -0.00372696 0)
(-0.0362281 -0.00287929 0)
(-0.000102564 -0.000470963 0)
(-0.00127399 -0.00134718 0)
(-0.00310004 -0.0019101 0)
(-0.00523632 -0.00221713 0)
(-0.00748434 -0.00239362 0)
(-0.00976477 -0.00252191 0)
(-0.0120494 -0.00264359 0)
(-0.0143327 -0.00277483 0)
(-0.0166145 -0.00291684 0)
(-0.0188906 -0.00306177 0)
(-0.0211483 -0.00319577 0)
(-0.0233641 -0.00330077 0)
(-0.0255037 -0.00335586 0)
(-0.027523 -0.00333881 0)
(-0.02937 -0.00322783 0)
(-0.0309887 -0.00300327 0)
(-0.0323201 -0.00264941 0)
(-0.0333073 -0.00215848 0)
(-5.07534e-05 -0.000220229 0)
(-0.00093322 -0.000725423 0)
(-0.00240076 -0.00105587 0)
(-0.00414015 -0.00123117 0)
(-0.00597885 -0.00133063 0)
(-0.00784884 -0.00140412 0)
(-0.00972826 -0.00147612 0)
(-0.0116154 -0.00155603 0)
(-0.0135131 -0.00164472 0)
(-0.0154207 -0.00173795 0)
(-0.0173304 -0.00182812 0)
(-0.0192255 -0.00190515 0)
(-0.0210797 -0.00195722 0)
(-0.0228581 -0.00197152 0)
(-0.0245186 -0.00193525 0)
(-0.0260144 -0.00183648 0)
(-0.027296 -0.00166508 0)
(-0.0283149 -0.00141559 0)
(-5.46334e-06 -7.76391e-05 0)
(-0.000590564 -0.000323908 0)
(-0.00165146 -0.000484963 0)
(-0.00292386 -0.000566939 0)
(-0.00427219 -0.000612676 0)
(-0.00564538 -0.000647142 0)
(-0.00702941 -0.000682172 0)
(-0.00842576 -0.000722233 0)
(-0.00983913 -0.000767764 0)
(-0.0112715 -0.000816875 0)
(-0.0127195 -0.000866111 0)
(-0.0141727 -0.000910835 0)
(-0.0156134 -0.000945507 0)
(-0.017017 -0.000964021 0)
(-0.0183528 -0.000960127 0)
(-0.0195859 -0.000927828 0)
(-0.0206782 -0.000861631 0)
(-0.0215924 -0.000758018 0)
(2.19713e-05 -1.35017e-05 0)
(-0.000292299 -0.000101131 0)
(-0.000930411 -0.000156446 0)
(-0.00170267 -0.000182882 0)
(-0.00252095 -0.000197311 0)
(-0.00335444 -0.000208503 0)
(-0.00419643 -0.000220439 0)
(-0.00504981 -0.000234572 0)
(-0.00591924 -0.000251047 0)
(-0.00680758 -0.000269273 0)
(-0.00771423 -0.000288157 0)
(-0.00863421 -0.000306205 0)
(-0.00955791 -0.000321603 0)
(-0.0104711 -0.000332304 0)
(-0.0113553 -0.000336164 0)
(-0.0121891 -0.000331058 0)
(-0.0129481 -0.000314781 0)
(-0.013608 -0.000285244 0)
(2.0331e-05 3.41545e-06 0)
(-7.07026e-05 -7.544e-06 0)
(-0.000288589 -1.21168e-05 0)
(-0.000553721 -1.40375e-05 0)
(-0.000833892 -1.50707e-05 0)
(-0.001119 -1.59588e-05 0)
(-0.00140763 -1.70385e-05 0)
(-0.00170166 -1.84209e-05 0)
(-0.00200344 -2.01216e-05 0)
(-0.00231464 -2.21035e-05 0)
(-0.00263567 -2.42888e-05 0)
(-0.00296542 -2.65669e-05 0)
(-0.00330104 -2.87908e-05 0)
(-0.00363799 -3.07853e-05 0)
(-0.00397011 -3.23534e-05 0)
(-0.00428997 -3.33123e-05 0)
(-0.00458866 -3.337e-05 0)
(-0.00485665 -3.18385e-05 0)
(-1.41567e-06 7.82473e-06 -2.18275e-22)
(8.24129e-05 -3.19624e-05 2.77813e-22)
(0.00027841 -8.49197e-05 0)
(0.000576943 -0.000130259 0)
(0.000947353 -0.000160981 0)
(0.00135244 -0.000175551 -2.7776e-22)
(0.00175427 -0.000175052 0)
(0.00211699 -0.000162153 0)
(0.00240935 -0.000140465 0)
(0.0026067 -0.000113985 0)
(0.00269201 -8.65952e-05 2.84979e-22)
(0.00265567 -6.16001e-05 0)
(0.00249469 -4.12688e-05 0)
(0.00221068 -2.67253e-05 0)
(0.00180715 -1.77889e-05 0)
(0.00128675 -1.3044e-05 2.99736e-22)
(0.000648617 -1.00728e-05 0)
(-0.000113873 -5.8143e-06 0)
(-0.00101404 2.99173e-06 0)
(-0.00207257 1.92087e-05 0)
(-0.00331674 4.54151e-05 0)
(-0.00477841 8.35233e-05 0)
(-0.00649234 0.000134718 0)
(-0.00849387 0.000199621 3.44247e-22)
(-0.0108169 0.000278482 -3.52157e-22)
(-0.013492 0.000371312 3.60421e-22)
(-0.0165448 0.000477948 3.68873e-22)
(-0.0199943 0.000598012 0)
(-0.0238517 0.000730782 0)
(-0.0281184 0.00087502 -3.92985e-22)
(-0.0327845 0.00102879 -3.99564e-22)
(-0.0378276 0.00118931 0)
(-0.0432109 0.00135284 0)
(-0.0488828 0.00151465 -4.09171e-22)
(-0.0547767 0.00166906 0)
(-0.0608111 0.0018096 0)
(-0.0668914 0.00192924 3.93329e-22)
(-0.0729111 0.00202075 0)
(-0.0787556 0.00207717 3.62282e-22)
(-0.0843045 0.00209229 6.78973e-22)
(-0.089436 0.00206118 0)
(-0.0940306 0.00198065 0)
(-0.0979749 0.00184968 0)
(-0.101166 0.00166947 0)
(-0.103513 0.00144305 0)
(-0.104943 0.00117372 1.91574e-22)
(-0.105404 0.000867497 7.88972e-23)
(-0.104853 0.000538223 -4.00439e-23)
(-0.103277 0.000191316 0)
(-0.100693 -0.000162178 2.89311e-22)
(-0.0971332 -0.000510538 0)
(-0.0926512 -0.000843189 -5.40989e-22)
(-0.087317 -0.00115098 -6.62547e-22)
(-0.0812167 -0.00142614 0)
(-0.0744488 -0.00166249 0)
(-0.0671218 -0.00185546 0)
(-0.059351 -0.00200222 -1.07094e-21)
(-0.0512561 -0.00210156 0)
(-0.0429575 -0.00215379 0)
(-0.0345748 -0.00216061 0)
(-0.0262235 -0.00212484 0)
(-0.0180138 -0.00205022 0)
(-0.0100479 -0.00194115 0)
(-0.00242039 -0.00180242 0)
(0.0047848 -0.0016381 0)
(0.0114963 -0.00145289 1.11347e-21)
(0.0176531 -0.00125297 0)
(0.0232035 -0.00104457 0)
(0.0281074 -0.000833637 -8.29459e-22)
(0.0323376 -0.000625347 -7.25042e-22)
(0.0358799 -0.000424081 0)
(0.0387317 -0.000233643 5.12234e-22)
(0.0409021 -5.72843e-05 -4.06982e-22)
(0.0424114 0.000102327 0)
(0.0432902 0.000243146 2.05564e-22)
(0.0435787 0.000363753 0)
(0.043325 0.000463353 0)
(0.0425848 0.000541842 5.83403e-23)
(0.0414184 0.00059972 0)
(0.0398891 0.00063808 -2.0069e-22)
(0.0380616 0.000658405 0)
(0.0360001 0.000662612 3.13692e-22)
(0.0337668 0.000652891 3.59337e-22)
(0.0314202 0.000631582 3.98095e-22)
(0.0290134 0.000601066 8.60725e-22)
(0.0265937 0.000563665 -9.13243e-22)
(0.0242014 0.000521558 0)
(0.0218697 0.000476719 0)
(0.0196249 0.000430879 0)
(0.0174864 0.000385501 -1.02578e-21)
(0.0154673 0.000341777 -1.03549e-21)
(0.0135747 0.000300647 1.04014e-21)
(0.0118112 0.000262812 0)
(0.0101748 0.000228764 -1.03836e-21)
(0.00866025 0.000198809 -1.03371e-21)
(0.00725937 0.000173089 -1.02756e-21)
(0.00596212 0.000151596 0)
(0.00475718 0.000134184 0)
(0.00363272 0.000120583 0)
(0.00257706 0.000110406 -9.98117e-22)
(0.00157937 0.000103175 0)
(0.000630187 9.83378e-05 0)
(-0.000278128 9.52422e-05 9.77259e-22)
(-0.00115128 9.3265e-05 0)
(-0.00199268 9.19173e-05 0)
(-0.00280371 9.07549e-05 9.53867e-22)
(-0.00358404 8.93863e-05 0)
(-0.00433198 8.75203e-05 0)
(-0.00504488 8.49673e-05 -9.29296e-22)
(-0.0057196 8.16312e-05 -9.20201e-22)
(-0.00635285 7.74969e-05 0)
(-0.00694153 7.26153e-05 9.00058e-22)
(-0.00748302 6.70875e-05 0)
(-0.00797535 6.1049e-05 -8.77053e-22)
(-0.00841732 5.46551e-05 0)
(-0.00880854 4.80681e-05 -8.51278e-22)
(-0.00914946 4.14461e-05 -8.3748e-22)
(-0.0094413 3.49352e-05 0)
(-0.00968598 2.86628e-05 0)
(-0.00988598 2.27344e-05 0)
(-0.0100443 1.72308e-05 0)
(-0.0101642 1.2208e-05 0)
(-0.0102491 7.69371e-06 0)
(-0.0103028 3.66935e-06 0)
(-0.0103291 1.27758e-07 -7.16745e-22)
(-0.0103312 -2.50392e-06 7.0166e-22)
(-0.0103125 -4.81927e-06 0)
(-0.0102765 -6.77465e-06 0)
(-0.0102262 -8.32386e-06 0)
(-0.0101642 -9.49222e-06 0)
(-0.010093 -1.03265e-05 1.26129e-21)
(-0.0100149 -1.08722e-05 0)
(-0.00993184 -1.11716e-05 -1.20957e-21)
(-0.00984548 -1.1264e-05 1.18489e-21)
(-0.00975731 -1.1185e-05 0)
(-0.00966857 -1.0967e-05 0)
(-0.00958031 -1.06385e-05 0)
(-0.00949338 -1.02248e-05 -1.09363e-21)
(-0.00940848 -9.74775e-06 -1.07257e-21)
(-0.00932617 -9.22607e-06 0)
(-0.00924687 -8.6756e-06 -1.03231e-21)
(-0.00917089 -8.10954e-06 -1.01305e-21)
(-0.00909845 -7.53876e-06 9.94314e-22)
(-0.00902969 -6.97208e-06 0)
(-0.00896466 -6.41659e-06 0)
(-0.00890339 -5.87791e-06 9.40918e-22)
(-0.00884581 -5.36038e-06 0)
(-0.00879187 -4.86728e-06 0)
(-0.00874143 -4.40092e-06 0)
(-0.00869435 -3.9628e-06 0)
(-0.00865049 -3.55373e-06 -8.59314e-22)
(-0.00860966 -3.17387e-06 -8.43838e-22)
(-0.00857168 -2.82294e-06 0)
(-0.00853637 -2.50019e-06 -8.13535e-22)
(-0.00850353 -2.20455e-06 0)
(-0.00847298 -1.93466e-06 0)
(-0.00844454 -1.68889e-06 -7.69403e-22)
(-0.00841803 -1.46548e-06 0)
(-0.00839329 -1.26246e-06 -7.4067e-22)
(-0.00837017 -1.07775e-06 0)
(-0.00834852 -9.09121e-07 0)
(-0.00832821 -7.54185e-07 -6.98335e-22)
(-0.00830914 -6.10171e-07 0)
(-0.00829122 -4.73465e-07 -6.70489e-22)
(-0.0082744 -3.38423e-07 0)
(-0.00825869 -1.95142e-07 0)
(-0.00824423 -2.56465e-08 0)
(-0.00823136 2.00966e-07 6.1531e-22)
(-0.00822078 5.31189e-07 0)
(-0.00821367 1.02359e-06 -5.87707e-22)
(-0.00821172 1.72226e-06 0)
(-0.00821686 2.57273e-06 0)
(-0.00823049 3.41234e-06 0)
(-0.00825143 4.43432e-06 0)
(-0.0082739 4.72178e-06 0)
(-0.00828341 3.93694e-06 0)
(-0.00825178 -8.13247e-07 0)
(-0.00815133 -1.01607e-05 9.24534e-22)
(-0.00793806 -1.56654e-05 0)
(-0.0070652 -0.000144796 0)
(2.88109e-05 -0.000192193 6.8833e-22)
(0.000306307 -0.000625352 -8.87749e-22)
(0.000799796 -0.00102529 0)
(0.00146638 -0.00132983 5.90525e-22)
(0.00223101 -0.00150542 0)
(0.00301488 -0.00153903 2.95314e-22)
(0.003739 -0.00143296 -5.92587e-22)
(0.00432675 -0.00120123 -5.94661e-22)
(0.00470835 -0.000866343 0)
(0.00482465 -0.000455711 -6.00914e-22)
(0.00462919 2.04212e-06 -3.03887e-22)
(0.00408873 0.000480868 0)
(0.00318145 0.000960661 0)
(0.0018934 0.00142969 0)
(0.000214113 0.00188598 0)
(-0.00186874 0.00233717 -3.21258e-22)
(-0.00437396 0.0027991 0)
(-0.00733094 0.00329298 6.38782e-22)
(-0.0107814 0.00384206 0)
(-0.0147791 0.00446788 0)
(-0.0193881 0.00518754 -6.55232e-22)
(-0.024678 0.00601138 0)
(-0.0307189 0.00694213 6.69954e-22)
(-0.0375758 0.00797495 -3.53108e-22)
(-0.0453026 0.00909817 3.58281e-22)
(-0.0539369 0.0102941 -3.63449e-22)
(-0.0634949 0.0115399 -3.68454e-22)
(-0.0739671 0.0128076 0)
(-0.0853145 0.0140643 0)
(-0.0974657 0.0152729 3.8054e-22)
(-0.110315 0.0163918 -3.5677e-22)
(-0.123722 0.0173768 0)
(-0.137513 0.0181821 0)
(-0.151487 0.0187631 3.80384e-22)
(-0.165417 0.0190783 0)
(-0.179059 0.0190926 0)
(-0.192162 0.0187787 -3.57229e-22)
(-0.204474 0.01812 0)
(-0.21575 0.0171111 3.37303e-22)
(-0.225764 0.0157586 -6.08855e-22)
(-0.23431 0.014081 0)
(-0.241215 0.0121077 0)
(-0.246334 0.00987709 -9.18114e-22)
(-0.24956 0.00743407 -7.70334e-22)
(-0.250822 0.00482685 -6.0424e-22)
(-0.250084 0.00210928 2.46802e-22)
(-0.247336 -0.000656423 -7.15966e-23)
(-0.242641 -0.0034009 3.20284e-23)
(-0.236074 -0.00606836 -2.20742e-22)
(-0.227727 -0.00860731 -2.6604e-22)
(-0.217722 -0.0109724 0)
(-0.206199 -0.0131252 5.0401e-22)
(-0.193313 -0.0150345 -5.45254e-22)
(-0.179233 -0.0166758 0)
(-0.164135 -0.018032 0)
(-0.148206 -0.0190929 0)
(-0.131633 -0.0198549 1.04424e-21)
(-0.114605 -0.0203207 0)
(-0.0973104 -0.0204984 -2.32496e-21)
(-0.0799328 -0.0204012 0)
(-0.0626501 -0.0200463 -2.52307e-21)
(-0.0456323 -0.019454 0)
(-0.0290401 -0.0186473 2.58913e-21)
(-0.0130236 -0.0176505 0)
(0.00227594 -0.0164884 -2.50303e-21)
(0.0167278 -0.0151867 1.14238e-21)
(0.0302253 -0.0137748 0)
(0.0426668 -0.0122796 1.92722e-21)
(0.0539661 -0.0107282 8.80367e-22)
(0.0640529 -0.00914756 7.64766e-22)
(0.0728731 -0.00756353 0)
(0.0803898 -0.00600112 4.8836e-22)
(0.0865834 -0.00448416 4.23744e-22)
(0.091453 -0.00303497 0)
(0.0950166 -0.00167394 -2.13141e-22)
(0.0973114 -0.000419131 2.00888e-22)
(0.0983938 0.000713925 0)
(0.0983367 0.00171413 -6.03963e-23)
(0.0972311 0.00257438 0)
(0.0951813 0.0032909 6.36703e-22)
(0.0923016 0.00386402 0)
(0.0887136 0.00429805 -9.83091e-22)
(0.0845422 0.00460079 -3.74246e-22)
(0.0799121 0.00478299 4.14797e-22)
(0.0749435 0.00485773 8.9467e-22)
(0.0697495 0.00483969 -9.48728e-22)
(0.064433 0.00474434 0)
(0.0590847 0.00458731 0)
(0.0537819 0.00438367 0)
(0.0485881 0.00414746 3.27557e-21)
(0.0435526 0.00389137 1.11598e-21)
(0.0387119 0.00362644 -1.12636e-21)
(0.0340901 0.00336205 0)
(0.0297006 0.00310585 -1.10729e-21)
(0.0255477 0.00286385 1.13481e-21)
(0.0216276 0.00264044 1.13287e-21)
(0.0179307 0.00243852 0)
(0.0144427 0.00225949 0)
(0.0111469 0.00210339 0)
(0.00802532 0.001969 1.1174e-21)
(0.00506041 0.00185404 0)
(0.00223643 0.0017554 -2.19842e-21)
(-0.00045933 0.00166938 -3.2906e-21)
(-0.00303667 0.00159204 2.16953e-21)
(-0.00550116 0.00151979 0)
(-0.0078546 0.00144947 1.05775e-21)
(-0.0100958 0.00137848 0)
(-0.0122213 0.001305 2.09236e-21)
(-0.0142259 0.00122794 -1.03032e-21)
(-0.016104 0.00114693 -1.02041e-21)
(-0.0178501 0.00106217 0)
(-0.0194593 0.000974346 -3.01311e-21)
(-0.0209283 0.000884477 1.98114e-21)
(-0.0222553 0.000793789 9.80777e-22)
(-0.02344 0.000703598 0)
(-0.0244845 0.000615208 9.51765e-22)
(-0.0253924 0.000529834 2.80498e-21)
(-0.0261688 0.000448541 0)
(-0.0268204 0.000372207 1.80572e-21)
(-0.027355 0.000301504 1.77324e-21)
(-0.0277813 0.000236893 1.74031e-21)
(-0.0281084 0.000178632 0)
(-0.0283459 0.000126793 0)
(-0.0285033 8.12664e-05 0)
(-0.02859 4.18548e-05 -8.03588e-22)
(-0.0286152 8.62416e-06 -7.87762e-22)
(-0.0285876 -1.93036e-05 0)
(-0.0285153 -4.2338e-05 -1.51147e-21)
(-0.0284058 -6.08637e-05 -1.48065e-21)
(-0.028266 -7.53397e-05 0)
(-0.0281021 -8.62395e-05 -1.421e-21)
(-0.0279195 -9.40217e-05 -2.78578e-21)
(-0.0277233 -9.91199e-05 1.36484e-21)
(-0.0275176 -0.000101936 1.33899e-21)
(-0.0273061 -0.000102839 0)
(-0.0270921 -0.00010216 0)
(-0.026878 -0.000100196 0)
(-0.0266663 -9.72096e-05 1.23891e-21)
(-0.0264586 -9.34304e-05 -1.217e-21)
(-0.0262564 -8.9057e-05 -2.38853e-21)
(-0.0260609 -8.42598e-05 1.1722e-21)
(-0.025873 -7.91836e-05 -1.1521e-21)
(-0.0256932 -7.39501e-05 -1.13081e-21)
(-0.0255219 -6.86607e-05 0)
(-0.0253595 -6.33988e-05 0)
(-0.025206 -5.82324e-05 1.07319e-21)
(-0.0250614 -5.32155e-05 0)
(-0.0249254 -4.83905e-05 0)
(-0.0247979 -4.37892e-05 -2.03633e-21)
(-0.0246786 -3.94344e-05 0)
(-0.0245671 -3.5341e-05 -9.8352e-22)
(-0.024463 -3.15173e-05 9.66084e-22)
(-0.0243659 -2.79658e-05 0)
(-0.0242754 -2.46844e-05 -9.33015e-22)
(-0.0241909 -2.16667e-05 0)
(-0.0241121 -1.89033e-05 0)
(-0.0240385 -1.6382e-05 8.83967e-22)
(-0.0239697 -1.40885e-05 -1.73617e-21)
(-0.0239052 -1.20068e-05 8.52133e-22)
(-0.0238447 -1.01195e-05 0)
(-0.0237879 -8.40775e-06 0)
(-0.0237343 -6.85093e-06 -8.05181e-22)
(-0.0236837 -5.42453e-06 0)
(-0.0236358 -4.09541e-06 -7.74103e-22)
(-0.0235905 -2.8111e-06 0)
(-0.0235477 -1.48024e-06 0)
(-0.0235078 5.82291e-08 0)
(-0.0234713 2.07095e-06 -7.12262e-22)
(-0.0234398 4.94572e-06 0)
(-0.0234157 9.13496e-06 6.81232e-22)
(-0.0234023 1.49372e-05 0)
(-0.0234031 2.20205e-05 0)
(-0.0234188 2.88294e-05 -1.26628e-21)
(-0.0234443 3.24538e-05 1.23237e-21)
(-0.0234617 2.65279e-05 0)
(-0.0234326 2.68322e-06 0)
(-0.0232905 -5.16763e-05 0)
(-0.0229657 -0.000150306 -3.23809e-21)
(-0.0223227 -0.000333189 0)
(-0.0206743 -0.000751216 1.97739e-21)
(4.08488e-05 -0.000602909 -1.31473e-24)
(0.000419993 -0.00166053 1.18148e-21)
(0.00104672 -0.00250254 0)
(0.00184363 -0.00306632 -1.17705e-21)
(0.00269659 -0.00331093 0)
(0.00349452 -0.00322012 0)
(0.00413006 -0.00280178 1.66858e-24)
(0.00450005 -0.00208509 5.93963e-22)
(0.00450945 -0.00111585 5.94938e-22)
(0.00407512 4.99007e-05 6.01296e-22)
(0.00312802 0.0013533 0)
(0.00161326 0.00274047 0)
(-0.000512779 0.00416969 -6.07792e-22)
(-0.00328616 0.00561692 -1.21768e-21)
(-0.00674047 0.00707874 1.21614e-21)
(-0.0109131 0.00857159 0)
(-0.0158495 0.0101284 1.21219e-21)
(-0.0216065 0.0117923 -6.21025e-22)
(-0.0282527 0.0136083 0)
(-0.0358653 0.0156155 1.21003e-21)
(-0.0445252 0.0178392 6.25252e-22)
(-0.0543093 0.0202867 -1.21509e-21)
(-0.0652815 0.0229443 -6.29735e-22)
(-0.0774839 0.0257783 0)
(-0.0909281 0.0287355 1.23715e-21)
(-0.105588 0.0317465 1.24891e-21)
(-0.121393 0.0347278 0)
(-0.138227 0.0375844 1.27887e-21)
(-0.155921 0.0402129 0)
(-0.174264 0.0425057 1.31501e-21)
(-0.192997 0.0443553 6.54846e-22)
(-0.21183 0.0456602 0)
(-0.230448 0.0463311 0)
(-0.248522 0.0462957 0)
(-0.265725 0.0455044 0)
(-0.281743 0.0439324 0)
(-0.296284 0.0415815 0)
(-0.309092 0.0384795 1.33983e-21)
(-0.319947 0.0346781 -1.88621e-21)
(-0.328674 0.0302499 0)
(-0.335143 0.0252839 0)
(-0.339268 0.0198812 0)
(-0.341007 0.0141496 -1.48555e-22)
(-0.340357 0.00819989 6.98495e-22)
(-0.337348 0.00214711 1.24892e-21)
(-0.332045 -0.003887 -9.11036e-22)
(-0.324582 -0.00978104 -3.39532e-22)
(-0.315059 -0.0154449 4.06817e-24)
(-0.303606 -0.0207975 1.2879e-22)
(-0.290366 -0.0257687 -2.95009e-22)
(-0.275496 -0.030299 0)
(-0.259162 -0.0343391 -7.50107e-22)
(-0.241539 -0.0378511 1.07752e-22)
(-0.222808 -0.0408075 0)
(-0.203155 -0.0431917 0)
(-0.18277 -0.0449973 1.61714e-21)
(-0.161841 -0.0462276 0)
(-0.140557 -0.0468945 0)
(-0.119102 -0.0470184 -2.02529e-21)
(-0.097656 -0.046626 -4.46816e-21)
(-0.0763924 -0.04575 2.41306e-21)
(-0.0554776 -0.0444276 0)
(-0.0350691 -0.0426988 -2.49981e-21)
(-0.0153162 -0.0406057 0)
(0.00363671 -0.0381928 -2.26003e-21)
(0.0216572 -0.0355054 -2.2915e-21)
(0.0386359 -0.0325914 4.00048e-21)
(0.0544616 -0.029495 1.70815e-21)
(0.0690345 -0.0262609 0)
(0.0822668 -0.0229339 -2.7011e-21)
(0.0940842 -0.0195595 0)
(0.104426 -0.0161832 -2.82117e-21)
(0.113246 -0.0128506 -1.42015e-21)
(0.120515 -0.00960658 -1.0197e-21)
(0.126223 -0.00649477 6.38546e-22)
(0.13038 -0.00355639 -4.72107e-22)
(0.133017 -0.000829121 0)
(0.134187 0.00165372 0)
(0.133962 0.00386671 -6.42613e-22)
(0.132437 0.00579036 -1.30193e-21)
(0.129724 0.00741357 0)
(0.125951 0.00873386 6.26606e-22)
(0.121257 0.00975714 0)
(0.115789 0.0104972 -2.41103e-21)
(0.109693 0.0109746 2.71081e-23)
(0.103117 0.0112156 -1.90488e-23)
(0.0961972 0.0112503 1.92586e-21)
(0.0890633 0.0111112 0)
(0.0818295 0.0108314 -2.04559e-21)
(0.0745952 0.0104433 -6.16201e-24)
(0.0674433 0.00997728 0)
(0.0604405 0.00946084 0)
(0.0536376 0.00891815 0)
(0.0470711 0.00836976 2.17982e-21)
(0.0407641 0.00783245 0)
(0.0347289 0.0073193 0)
(0.0289682 0.00683972 0)
(0.0234776 0.00639957 0)
(0.0182476 0.00600131 0)
(0.0132656 0.00564428 2.16571e-21)
(0.00851812 0.00532512 0)
(0.00399232 0.00503844 2.18364e-21)
(-0.000322141 0.00477743 2.17564e-21)
(-0.00443331 0.0045345 -2.15663e-21)
(-0.00834521 0.00430222 0)
(-0.0120581 0.00407418 -2.11186e-21)
(-0.0155694 0.00384531 0)
(-0.0188747 0.00361216 -2.06874e-21)