/*--------------------------------*- C++ -*----------------------------------*\
  =========                 |
  \\      /  F ield         | OpenFOAM: The Open Source CFD Toolbox
   \\    /   O peration     | Website:  https://openfoam.org
    \\  /    A nd           | Version:  8
     \\/     M anipulation  |
\*---------------------------------------------------------------------------*/
FoamFile
{
    version     2.0;
    format      ascii;
    class       volScalarField;
    location    "0.98";
    object      p;
}
// * * * * * * * * * * * * * * * * * * * * * * * * * * * * * * * * * * * * * //

dimensions      [0 2 -2 0 0 0 0];

internalField   nonuniform List<scalar> 
12225
(
-0.00133457
-0.00131262
-0.00129128
-0.00127517
-0.00126822
-0.00127214
-0.00128841
-0.00131846
-0.001364
-0.00142731
-0.00151168
-0.00162224
-0.0017674
-0.001962
-0.00223312
-0.00263067
-0.00329763
-0.00479432
-0.00133439
-0.00131478
-0.00129564
-0.00128148
-0.00127627
-0.00128177
-0.00129951
-0.00133095
-0.0013778
-0.00144231
-0.00152769
-0.00163884
-0.00178364
-0.00197523
-0.00223584
-0.00260278
-0.003149
-0.00415093
-0.00133508
-0.00131759
-0.00130088
-0.00128895
-0.00128574
-0.00129306
-0.00131246
-0.0013454
-0.00139358
-0.00145914
-0.00154513
-0.00165601
-0.00179861
-0.00198355
-0.00222658
-0.00254857
-0.00295813
-0.00358291
-0.00133682
-0.00132073
-0.00130606
-0.00129616
-0.00129479
-0.00130375
-0.00132459
-0.00135875
-0.00140783
-0.00147382
-0.00155942
-0.00166844
-0.00180627
-0.00198044
-0.00219998
-0.00247208
-0.0027758
-0.00316799
-0.00133951
-0.0013242
-0.00131116
-0.00130306
-0.00130334
-0.00131374
-0.00133579
-0.00137083
-0.00142034
-0.00148606
-0.00157023
-0.00167579
-0.00180648
-0.0019666
-0.00215936
-0.00238251
-0.00260664
-0.00284966
-0.00134299
-0.00132798
-0.00131623
-0.00130972
-0.00131147
-0.00132313
-0.00134613
-0.00138172
-0.00143117
-0.00149592
-0.00157765
-0.0016783
-0.0017999
-0.00194383
-0.00210883
-0.00228698
-0.00244947
-0.00259543
-0.00134707
-0.001332
-0.00132119
-0.00131605
-0.00131908
-0.00133178
-0.00135547
-0.00139123
-0.00144012
-0.0015032
-0.00158152
-0.00167601
-0.00178708
-0.00191374
-0.00205171
-0.00219043
-0.00230541
-0.00238945
-0.00135151
-0.00133609
-0.00132592
-0.00132193
-0.00132601
-0.00133951
-0.00136358
-0.00139912
-0.00144693
-0.00150764
-0.00158169
-0.00166902
-0.00176868
-0.00187794
-0.00199084
-0.00209638
-0.00217563
-0.00222141
-0.00135601
-0.00134008
-0.00133027
-0.00132719
-0.00133209
-0.00134613
-0.00137025
-0.00140516
-0.00145137
-0.0015091
-0.00157815
-0.00165764
-0.00174555
-0.00183807
-0.00192863
-0.0020072
-0.0020602
-0.00208289
-0.00136018
-0.0013437
-0.00133405
-0.00133166
-0.00133715
-0.00135145
-0.00137529
-0.00140917
-0.0014533
-0.0015075
-0.00157103
-0.00164233
-0.00171866
-0.00179569
-0.00186701
-0.00192427
-0.00195839
-0.00196732
-0.00136361
-0.00134662
-0.00133703
-0.00133514
-0.00134098
-0.00135526
-0.0013785
-0.00141097
-0.0014526
-0.00150286
-0.00156056
-0.00162365
-0.00168898
-0.00175213
-0.00180734
-0.00184808
-0.00186873
-0.00186949
-0.00136567
-0.00134834
-0.00133878
-0.0013372
-0.00134316
-0.00135717
-0.00137957
-0.00141043
-0.00144947
-0.00149587
-0.00154815
-0.00160396
-0.00166003
-0.00171208
-0.00175512
-0.00178412
-0.00179572
-0.00179171
-0.00136626
-0.00134916
-0.00133962
-0.00133828
-0.00134424
-0.0013578
-0.00137915
-0.00140817
-0.00144439
-0.00148676
-0.00153361
-0.00158246
-0.00163006
-0.00167253
-0.00170567
-0.00172578
-0.0017311
-0.0017236
-0.00136465
-0.00134844
-0.00133909
-0.00133795
-0.00134378
-0.00135662
-0.00137649
-0.00140313
-0.00143589
-0.00147358
-0.00151437
-0.00155581
-0.00159484
-0.00162807
-0.0016522
-0.00166469
-0.00166485
-0.00165444
-0.00135933
-0.00134481
-0.00133615
-0.00133525
-0.00134078
-0.00135254
-0.00137044
-0.0013941
-0.00142275
-0.00145511
-0.00148938
-0.0015232
-0.00155387
-0.00157855
-0.00159474
-0.00160078
-0.00159652
-0.00158338
-0.00134817
-0.00133647
-0.00132935
-0.00132888
-0.00133395
-0.00134424
-0.0013596
-0.0013796
-0.00140344
-0.00142989
-0.00145725
-0.00148342
-0.00150607
-0.00152292
-0.00153208
-0.00153245
-0.00152396
-0.00150761
-0.00132864
-0.00132127
-0.00131692
-0.00131728
-0.00132176
-0.00133015
-0.00134231
-0.00135786
-0.00137611
-0.00139595
-0.0014159
-0.00143419
-0.00144888
-0.00145814
-0.00146051
-0.00145514
-0.0014418
-0.00142105
-0.00129877
-0.00129737
-0.00129718
-0.00129888
-0.00130263
-0.00130857
-0.00131672
-0.00132685
-0.00133842
-0.00135055
-0.00136207
-0.00137152
-0.00137735
-0.00137807
-0.00137249
-0.00135984
-0.00133969
-0.00131217
-0.00125972
-0.00126538
-0.00127009
-0.00127315
-0.00127561
-0.00127814
-0.00128101
-0.00128418
-0.00128739
-0.00129004
-0.00129128
-0.00129005
-0.00128513
-0.00127535
-0.00125972
-0.00123745
-0.00120774
-0.0011707
-0.00123062
-0.0012419
-0.00125031
-0.00125407
-0.0012549
-0.00125373
-0.0012509
-0.00124651
-0.00124042
-0.0012323
-0.00122159
-0.00120757
-0.00118946
-0.00116646
-0.00113788
-0.00110319
-0.00106207
-0.00101394
-0.00121636
-0.00123046
-0.00124056
-0.00124447
-0.00124412
-0.00124041
-0.00123362
-0.00122386
-0.00121104
-0.00119495
-0.00117523
-0.0011514
-0.00112295
-0.00108937
-0.00105028
-0.00100539
-0.00095441
-0.000897163
-0.00121221
-0.00122732
-0.00123799
-0.00124195
-0.00124097
-0.00123567
-0.00122618
-0.00121252
-0.00119459
-0.00117223
-0.00114517
-0.00111313
-0.0010758
-0.00103293
-0.000984373
-0.000930105
-0.000870082
-0.000804338
-0.00121479
-0.00122971
-0.00124038
-0.0012446
-0.00124364
-0.00123771
-0.00122674
-0.00121062
-0.0011892
-0.0011623
-0.00112972
-0.00109128
-0.00104683
-0.000996319
-0.000939799
-0.000877471
-0.000809574
-0.00073639
-0.00122094
-0.00123509
-0.00124567
-0.00125055
-0.00125025
-0.00124454
-0.00123315
-0.00121581
-0.00119231
-0.00116242
-0.00112596
-0.0010828
-0.00103291
-0.00097635
-0.000913342
-0.000844257
-0.000769579
-0.000689851
-0.00122825
-0.00124153
-0.00125232
-0.00125834
-0.00125925
-0.00125444
-0.00124342
-0.00122584
-0.00120137
-0.00116975
-0.00113077
-0.00108431
-0.0010304
-0.000969178
-0.000900981
-0.000826303
-0.000745811
-0.000660311
-0.00123509
-0.00124783
-0.00125934
-0.00126695
-0.00126949
-0.00126603
-0.00125597
-0.00123884
-0.00121423
-0.00118182
-0.00114136
-0.00109273
-0.00103594
-0.000971201
-0.000898898
-0.000819613
-0.000734136
-0.000643502
-0.00124052
-0.00125333
-0.00126618
-0.00127576
-0.00128021
-0.00127841
-0.00126968
-0.00125345
-0.00122929
-0.00119678
-0.00115563
-0.00110566
-0.00104689
-0.000979528
-0.000903986
-0.0008209
-0.000731128
-0.000635877
-0.0012441
-0.00125782
-0.00127267
-0.00128454
-0.0012911
-0.00129117
-0.001284
-0.00126902
-0.0012457
-0.00121359
-0.00117233
-0.00112168
-0.00106161
-0.000992301
-0.000914186
-0.000827917
-0.000734384
-0.000634889
-0.00124569
-0.00126131
-0.00127874
-0.00129312
-0.00130191
-0.00130394
-0.00129849
-0.00128495
-0.00126278
-0.00123144
-0.0011905
-0.00113964
-0.00107879
-0.00100809
-0.000927921
-0.000838958
-0.000742094
-0.000638664
-0.00124577
-0.00126366
-0.00128345
-0.00129995
-0.00131059
-0.00131425
-0.00131023
-0.00129796
-0.00127684
-0.00124628
-0.00120578
-0.00115498
-0.00109374
-0.00102213
-0.000940547
-0.000849623
-0.000750259
-0.000643795
0.000399473
0.00040655
0.000406362
0.000394049
0.000369712
0.000334222
0.00028845
0.000233322
0.000169802
9.88327e-05
2.12567e-05
-6.21859e-05
-0.000150863
-0.000244238
-0.000341852
-0.000443294
-0.000548172
-0.00065608
-0.000766565
-0.000879096
-0.000993035
-0.00110761
-0.00122189
-0.00133478
-0.00144499
-0.00155104
-0.00165125
-0.00174376
-0.00182654
-0.00189738
-0.00195397
-0.00199392
-0.00201476
-0.00201408
-0.00198952
-0.00193886
-0.00186012
-0.0017516
-0.00161197
-0.00144036
-0.0012364
-0.00100028
-0.000732839
-0.000435544
-0.000110517
0.000239533
0.000611095
0.0010002
0.00140232
0.00181247
0.00222534
0.00263536
0.00303687
0.00342419
0.0037918
0.00413437
0.00444695
0.00472498
0.0049644
0.00516171
0.005314
0.00541897
0.00547493
0.00548082
0.00543625
0.00534138
0.00519697
0.00500443
0.00476576
0.00448359
0.00416113
0.00380225
0.0034114
0.00299367
0.00255472
0.00210077
0.00163847
0.00117484
0.000717096
0.000272465
-0.000152068
-0.000549847
-0.00091497
-0.00124237
-0.00152807
-0.00176933
-0.00196478
-0.00211443
-0.00221966
-0.00228307
-0.0023083
-0.00229985
-0.00226273
-0.00220225
-0.00212375
-0.00203234
-0.00193278
-0.00182933
-0.00172569
-0.001625
-0.00152979
-0.00144202
-0.00136309
-0.0012938
-0.00123442
-0.00118467
-0.00114381
-0.00111075
-0.00108412
-0.00106244
-0.00104425
-0.00102815
-0.00101297
-0.000997745
-0.000981754
-0.000964531
-0.000945834
-0.000925617
-0.000903997
-0.00088122
-0.000857614
-0.000833583
-0.000809533
-0.000785879
-0.000763004
-0.000741248
-0.00072089
-0.000702139
-0.000685138
-0.000669956
-0.000656598
-0.000645013
-0.0006351
-0.000626722
-0.000619713
-0.000613892
-0.000609068
-0.000605051
-0.000601656
-0.000598711
-0.000596054
-0.000593545
-0.000591057
-0.000588482
-0.000585732
-0.000582731
-0.00057942
-0.000575754
-0.000571701
-0.000567235
-0.000562342
-0.000557017
-0.000551259
-0.000545074
-0.00053847
-0.000531461
-0.000524061
-0.000516286
-0.000508154
-0.000499681
-0.000490883
-0.000481774
-0.000472364
-0.00046266
-0.000452664
-0.000442372
-0.000431773
-0.000420851
-0.000409582
-0.000397941
-0.000385897
-0.000373408
-0.000360461
-0.000347037
-0.000333135
-0.000318787
-0.000304066
-0.000289193
-0.000275488
-0.000256621
0.000412494
0.000418561
0.000417794
0.000406071
0.000383958
0.000352427
0.000312217
0.000264024
0.000208554
0.000146479
7.84204e-05
4.92347e-06
-7.35445e-05
-0.000156581
-0.000243836
-0.000334991
-0.000429734
-0.000527736
-0.000628621
-0.000731944
-0.000837157
-0.000943596
-0.00105045
-0.00115675
-0.00126135
-0.00136292
-0.00145993
-0.00155068
-0.00163327
-0.00170564
-0.0017656
-0.00181082
-0.00183892
-0.00184748
-0.00183415
-0.00179666
-0.00173291
-0.00164108
-0.00151965
-0.00136755
-0.00118417
-0.000969447
-0.000723939
-0.000448841
-0.000145996
0.000182147
0.000532432
0.000901054
0.00128368
0.0016755
0.00207136
0.00246581
0.00285327
0.00322813
0.00358487
0.00391821
0.00422313
0.00449508
0.00472994
0.00492416
0.00507476
0.00517938
0.00523627
0.00524429
0.00520293
0.00511235
0.00497334
0.00478734
0.00455635
0.00428301
0.00397057
0.00362291
0.00324452
0.00284052
0.00241659
0.00197893
0.00153417
0.00108923
0.000651207
0.000227127
-0.000176199
-0.000552455
-0.000896171
-0.0012027
-0.00146851
-0.00169135
-0.00187031
-0.00200585
-0.00209968
-0.00215467
-0.0021746
-0.00216396
-0.00212763
-0.00207069
-0.00199808
-0.0019145
-0.00182421
-0.00173096
-0.00163798
-0.00154793
-0.00146295
-0.00138469
-0.00131428
-0.00125241
-0.00119927
-0.00115462
-0.00111784
-0.00108797
-0.00106385
-0.0010442
-0.00102771
-0.00101317
-0.000999502
-0.000985832
-0.000971483
-0.000955993
-0.000939103
-0.000920733
-0.000900957
-0.000879972
-0.00085807
-0.000835594
-0.000812931
-0.000790467
-0.000768572
-0.000747577
-0.000727763
-0.000709351
-0.000692497
-0.000677291
-0.000663762
-0.000651883
-0.000641577
-0.000632734
-0.00062521
-0.000618844
-0.000613465
-0.000608896
-0.000604967
-0.000601513
-0.000598383
-0.000595437
-0.000592554
-0.000589627
-0.000586566
-0.000583294
-0.000579752
-0.000575891
-0.000571672
-0.000567072
-0.000562073
-0.000556665
-0.000550845
-0.000544615
-0.000537981
-0.000530954
-0.000523546
-0.000515772
-0.000507646
-0.000499184
-0.0004904
-0.000481306
-0.000471913
-0.000462226
-0.000452249
-0.000441976
-0.000431401
-0.000420508
-0.000409278
-0.000397687
-0.000385711
-0.000373326
-0.00036051
-0.000347256
-0.000333578
-0.000319523
-0.00030519
-0.000290832
-0.000277742
-0.000259717
0.000477585
0.000478185
0.000472212
0.000457093
0.00043355
0.000402461
0.000364435
0.000319987
0.000269606
0.000213741
0.000152778
8.70405e-05
1.67928e-05
-5.77523e-05
-0.000136419
-0.00021905
-0.000305489
-0.000395555
-0.000489017
-0.000585576
-0.000684834
-0.000786274
-0.000889236
-0.000992898
-0.00109626
-0.00119812
-0.00129707
-0.00139152
-0.00147964
-0.00155941
-0.00162863
-0.00168497
-0.00172595
-0.00174905
-0.00175176
-0.00173159
-0.00168625
-0.00161364
-0.00151199
-0.00137995
-0.00121663
-0.00102172
-0.000795528
-0.000539015
-0.000253768
5.77664e-05
0.000392606
0.000747024
0.00111672
0.00149691
0.00188239
0.00226769
0.00264718
0.00301519
0.00336614
0.00369466
0.0039957
0.00426463
0.0044973
0.00469012
0.0048401
0.00494486
0.00500265
0.00501232
0.00497335
0.00488586
0.00475068
0.00456928
0.00434368
0.00407652
0.00377108
0.0034313
0.00306171
0.00266749
0.00225441
0.00182874
0.00139718
0.000966728
0.000544512
0.000137581
-0.000247308
-0.000604085
-0.000927349
-0.00121281
-0.00145735
-0.00165921
-0.00181802
-0.0019348
-0.00201185
-0.00205255
-0.00206111
-0.00204229
-0.00200113
-0.00194262
-0.00187154
-0.00179221
-0.00170841
-0.00162338
-0.00153975
-0.00145964
-0.00138469
-0.00131611
-0.00125473
-0.00120099
-0.00115499
-0.00111644
-0.00108479
-0.00105918
-0.00103859
-0.00102191
-0.001008
-0.000995772
-0.000984276
-0.000972708
-0.00096044
-0.000947033
-0.00093222
-0.000915901
-0.000898116
-0.000879028
-0.000858888
-0.000838013
-0.00081676
-0.000795496
-0.000774581
-0.000754344
-0.00073507
-0.000716991
-0.00070028
-0.000685045
-0.00067134
-0.000659161
-0.000648458
-0.000639141
-0.000631092
-0.000624169
-0.000618218
-0.000613081
-0.000608597
-0.000604612
-0.000600983
-0.000597577
-0.000594274
-0.000590969
-0.000587572
-0.000584007
-0.000580211
-0.000576132
-0.000571732
-0.000566982
-0.00056186
-0.000556355
-0.000550459
-0.000544173
-0.0005375
-0.000530447
-0.000523026
-0.000515246
-0.000507123
-0.000498669
-0.000489896
-0.000480817
-0.00047144
-0.000461772
-0.000451815
-0.000441566
-0.000431019
-0.000420163
-0.00040898
-0.000397453
-0.00038556
-0.000373289
-0.000360623
-0.000347563
-0.000334135
-0.000320401
-0.000306479
-0.000292616
-0.000280238
-0.000262671
0.000593189
0.000583658
0.000567715
0.000545388
0.000517088
0.000483223
0.000444184
0.0004003
0.000351844
0.000299025
0.000241988
0.000180816
0.000115536
4.61304e-05
-2.74519e-05
-0.000105275
-0.000187396
-0.000273845
-0.000364596
-0.000459544
-0.000558481
-0.000661064
-0.00076679
-0.000874975
-0.000984724
-0.00109491
-0.00120418
-0.00131089
-0.00141317
-0.00150889
-0.00159568
-0.00167097
-0.00173204
-0.00177605
-0.00180013
-0.00180148
-0.00177741
-0.00172549
-0.00164361
-0.00153012
-0.00138387
-0.00120436
-0.00099176
-0.000746884
-0.000471334
-0.000167544
0.000161319
0.000511409
0.000878266
0.0012569
0.00164191
0.00202761
0.00240814
0.00277765
0.00313038
0.00346082
0.00376381
0.00403465
0.00426916
0.00446374
0.0046154
0.00472181
0.00478128
0.00479273
0.0047557
0.00467038
0.00453754
0.00435867
0.0041358
0.00387157
0.00356927
0.00323282
0.00286684
0.00247655
0.00206783
0.00164711
0.00122127
0.000797536
0.000383275
-1.42265e-05
-0.000388006
-0.000731704
-0.00103988
-0.00130829
-0.00153399
-0.0017155
-0.00185293
-0.0019479
-0.0020034
-0.00202357
-0.00201338
-0.00197827
-0.0019238
-0.00185532
-0.00177773
-0.00169525
-0.00161139
-0.00152892
-0.00144994
-0.00137598
-0.00130811
-0.00124706
-0.00119323
-0.00114676
-0.00110753
-0.00107513
-0.00104896
-0.00102818
-0.00101182
-0.000998845
-0.000988199
-0.000978894
-0.000970049
-0.000960923
-0.000950937
-0.000939675
-0.000926883
-0.000912458
-0.000896435
-0.00087896
-0.000860274
-0.000840681
-0.000820529
-0.000800183
-0.000780001
-0.000760318
-0.000741426
-0.000723571
-0.000706939
-0.000691655
-0.00067779
-0.000665358
-0.000654327
-0.000644625
-0.00063615
-0.000628775
-0.00062236
-0.000616758
-0.000611819
-0.000607396
-0.000603352
-0.000599559
-0.0005959
-0.000592272
-0.000588585
-0.000584764
-0.000580742
-0.00057647
-0.000571904
-0.000567015
-0.000561778
-0.000556178
-0.000550208
-0.000543864
-0.000537148
-0.000530064
-0.000522622
-0.000514831
-0.000506703
-0.00049825
-0.000489483
-0.000480414
-0.000471049
-0.000461396
-0.000451457
-0.000441231
-0.000430713
-0.000419894
-0.000408761
-0.000397299
-0.000385493
-0.00037333
-0.000360805
-0.000347926
-0.000334724
-0.00032127
-0.000307684
-0.000294193
-0.000282183
-0.000265199
0.00074392
0.000721007
0.000691674
0.000659392
0.000623987
0.000585223
0.000543127
0.000497749
0.000449073
0.000397012
0.000341419
0.00028209
0.000218773
0.000151175
7.89767e-05
1.85346e-06
-8.0508e-05
-0.000168383
-0.000261982
-0.000361421
-0.000466691
-0.000577619
-0.000693842
-0.000814768
-0.000939543
-0.00106703
-0.00119578
-0.00132401
-0.00144964
-0.00157024
-0.0016831
-0.00178526
-0.00187354
-0.00194465
-0.00199526
-0.00202209
-0.00202202
-0.00199223
-0.00193027
-0.00183421
-0.00170273
-0.0015352
-0.00133175
-0.0010932
-0.000821317
-0.000518768
-0.000188947
0.000164022
0.000535365
0.000919761
0.00131147
0.00170447
0.0020926
0.00246974
0.00282988
0.00316735
0.00347684
0.00375358
0.00399336
0.00419259
0.00434834
0.00445836
0.00452105
0.00453541
0.00450107
0.00441825
0.00428778
0.00411113
0.00389033
0.00362799
0.00332735
0.00299232
0.00262749
0.00223815
0.00183026
0.0014104
0.000985721
0.000563743
0.000152208
-0.000241177
-0.000609014
-0.000944493
-0.00124177
-0.00149633
-0.00170513
-0.00186677
-0.00198165
-0.0020519
-0.00208125
-0.00207476
-0.0020384
-0.00197863
-0.00190197
-0.00181453
-0.00172171
-0.00162799
-0.00153681
-0.00145066
-0.00137112
-0.00129915
-0.00123516
-0.00117928
-0.00113139
-0.00109118
-0.00105821
-0.00103186
-0.00101135
-0.000995786
-0.000984168
-0.000975453
-0.000968621
-0.000962726
-0.000956933
-0.000950547
-0.000943024
-0.000933979
-0.000923179
-0.000910536
-0.000896091
-0.000879998
-0.000862503
-0.000843916
-0.000824593
-0.000804906
-0.000785226
-0.000765898
-0.000747228
-0.000729475
-0.000712838
-0.000697459
-0.000683419
-0.000670749
-0.000659427
-0.000649395
-0.000640561
-0.00063281
-0.00062601
-0.000620023
-0.000614705
-0.000609918
-0.000605526
-0.000601406
-0.000597445
-0.00059354
-0.000589602
-0.000585555
-0.000581335
-0.000576888
-0.000572172
-0.000567153
-0.000561807
-0.000556117
-0.000550073
-0.00054367
-0.000536908
-0.000529789
-0.000522322
-0.000514514
-0.000506375
-0.000497918
-0.000489151
-0.000480086
-0.000470729
-0.000461089
-0.000451166
-0.000440963
-0.000430474
-0.000419694
-0.000408611
-0.000397216
-0.000385495
-0.000373442
-0.000361054
-0.000348345
-0.000335348
-0.000322137
-0.000308828
-0.000295618
-0.000283715
-0.00026755
0.000913455
0.000875519
0.000831015
0.000787291
0.00074352
0.000698592
0.000652062
0.00060362
0.000552884
0.000499403
0.00044268
0.000382177
0.000317319
0.000247506
0.000172121
9.0552e-05
2.21185e-06
-9.34332e-05
-0.000196832
-0.000308309
-0.00042803
-0.000555949
-0.000691774
-0.000834917
-0.000984457
-0.0011391
-0.00129718
-0.00145659
-0.00161485
-0.00176909
-0.00191606
-0.00205226
-0.00217394
-0.00227725
-0.0023583
-0.00241331
-0.00243872
-0.00243133
-0.00238841
-0.00230785
-0.00218821
-0.00202886
-0.00182993
-0.00159253
-0.00131872
-0.00101143
-0.0006744
-0.000312158
7.00991e-05
0.000466617
0.000871228
0.0012775
0.00167891
0.00206898
0.00244145
0.00279042
0.00311046
0.00339669
0.00364491
0.00385156
0.00401381
0.00412951
0.00419718
0.00421598
0.00418562
0.00410639
0.00397916
0.00380539
0.00358709
0.00332678
0.00302763
0.00269346
0.00232881
0.00193896
0.00152994
0.00110847
0.000681955
0.000258261
-0.000154415
-0.000547828
-0.000913984
-0.00124547
-0.00153577
-0.0017798
-0.00197411
-0.00211712
-0.00220926
-0.002253
-0.00225272
-0.00221439
-0.00214517
-0.0020528
-0.00194512
-0.00182944
-0.00171213
-0.00159831
-0.0014917
-0.00139472
-0.0013086
-0.00123369
-0.00116975
-0.00111616
-0.00107214
-0.00103683
-0.00100931
-0.000988598
-0.00097367
-0.000963445
-0.000956825
-0.000952703
-0.000950035
-0.000947874
-0.000945403
-0.000941951
-0.000937004
-0.000930204
-0.000921344
-0.000910359
-0.000897313
-0.000882382
-0.00086583
-0.00084799
-0.000829238
-0.000809966
-0.000790563
-0.000771394
-0.000752783
-0.000735001
-0.000718264
-0.000702725
-0.000688477
-0.000675559
-0.00066396
-0.000653627
-0.000644478
-0.000636402
-0.000629275
-0.000622962
-0.000617325
-0.000612229
-0.000607543
-0.000603145
-0.000598924
-0.000594779
-0.000590622
-0.000586377
-0.000581979
-0.000577374
-0.00057252
-0.000567381
-0.000561932
-0.000556155
-0.000550037
-0.000543574
-0.000536762
-0.000529605
-0.000522108
-0.000514278
-0.000506124
-0.000497657
-0.000488886
-0.000479821
-0.00047047
-0.000460839
-0.000450932
-0.00044075
-0.000430291
-0.00041955
-0.000408521
-0.000397193
-0.00038556
-0.000373616
-0.000361362
-0.000348815
-0.00033601
-0.000323017
-0.000309943
-0.000296958
-0.000285022
-0.000269843
0.00108416
0.00103084
0.000970825
0.000915349
0.000862821
0.000811167
0.000759377
0.000706687
0.000652272
0.00059525
0.000534719
0.000469762
0.000399453
0.000322855
0.00023904
0.000147102
4.61833e-05
-6.44929e-05
-0.000185582
-0.000317572
-0.000460734
-0.000615064
-0.000780231
-0.000955524
-0.0011398
-0.00133148
-0.00152845
-0.00172816
-0.00192756
-0.00212315
-0.00231108
-0.00248715
-0.002647
-0.00278614
-0.00290014
-0.00298473
-0.00303594
-0.00305029
-0.00302482
-0.00295731
-0.00284631
-0.00269125
-0.00249255
-0.00225154
-0.00197064
-0.00165314
-0.00130324
-0.00092593
-0.000526908
-0.000112435
0.00031082
0.000735955
0.001156
0.00156411
0.0019537
0.00231862
0.00265327
0.00295271
0.00321271
0.00342979
0.0036012
0.00372496
0.00379976
0.00382489
0.0038002
0.00372611
0.00360351
0.00343382
0.00321901
0.00296151
0.00266437
0.00233127
0.00196666
0.00157574
0.00116458
0.000740016
0.000309672
-0.000118215
-0.000534973
-0.000931754
-0.00129986
-0.00163113
-0.00191826
-0.00215536
-0.00233826
-0.0024649
-0.00253548
-0.00255253
-0.00252086
-0.00244727
-0.00234006
-0.00220845
-0.00206184
-0.00190914
-0.00175814
-0.00161507
-0.00148436
-0.00136867
-0.00126911
-0.00118554
-0.00111702
-0.00106216
-0.00101938
-0.000987079
-0.000963738
-0.000947889
-0.000938111
-0.000933041
-0.000931402
-0.000931956
-0.000933578
-0.000935282
-0.000936237
-0.000935777
-0.000933404
-0.000928784
-0.000921738
-0.000912232
-0.000900363
-0.000886339
-0.000870458
-0.000853087
-0.000834633
-0.000815519
-0.00079616
-0.000776945
-0.000758218
-0.00074027
-0.000723327
-0.000707554
-0.000693052
-0.000679867
-0.000667991
-0.000657378
-0.000647946
-0.000639588
-0.000632182
-0.000625595
-0.000619692
-0.000614339
-0.000609407
-0.000604776
-0.000600336
-0.000595987
-0.000591641
-0.000587223
-0.000582668
-0.000577922
-0.000572942
-0.000567691
-0.000562145
-0.000556284
-0.000550095
-0.00054357
-0.000536708
-0.000529509
-0.000521978
-0.000514121
-0.000505947
-0.000497466
-0.000488686
-0.000479617
-0.000470267
-0.000460643
-0.00045075
-0.000440589
-0.00043016
-0.00041946
-0.000408484
-0.000397226
-0.000385681
-0.000373845
-0.000361724
-0.000349333
-0.000336707
-0.00032391
-0.00031104
-0.000298241
-0.000286193
-0.000272091
0.00123791
0.00116998
0.00109525
0.0010286
0.000967614
0.000909196
0.000851688
0.000793801
0.000734198
0.000671514
0.0006044
0.000531532
0.000451606
0.000363342
0.0002655
0.000156893
3.64211e-05
-9.68917e-05
-0.000243847
-0.000405014
-0.00058067
-0.000770732
-0.000974693
-0.00119157
-0.00141984
-0.00165745
-0.00190175
-0.00214953
-0.00239708
-0.00264019
-0.00287428
-0.00309447
-0.00329573
-0.00347299
-0.00362128
-0.00373591
-0.00381259
-0.00384755
-0.00383775
-0.0037809
-0.00367562
-0.00352149
-0.00331912
-0.00307031
-0.00277777
-0.00244524
-0.00207739
-0.00167975
-0.00125857
-0.000820691
-0.000373328
7.60715e-05
0.000520044
0.000951292
0.00136287
0.00174834
0.00210191
0.00241853
0.00269395
0.00292475
0.00310833
0.00324286
0.00332721
0.00336089
0.00334392
0.0032768
0.00316049
0.0029964
0.00278643
0.0025329
0.0022387
0.00190735
0.00154315
0.00115122
0.000737585
0.000309187
-0.000126154
-0.000559858
-0.000982764
-0.0013854
-0.00175834
-0.00209254
-0.00237987
-0.00261347
-0.00278827
-0.00290145
-0.00295269
-0.00294431
-0.00288128
-0.00277097
-0.00262272
-0.00244717
-0.00225546
-0.00205835
-0.00186545
-0.00168454
-0.00152121
-0.00137881
-0.00125859
-0.00116014
-0.00108191
-0.00102167
-0.000976963
-0.00094533
-0.000924483
-0.000912322
-0.000906917
-0.000906505
-0.000909543
-0.000914596
-0.000920406
-0.000925902
-0.000930211
-0.000932649
-0.000932722
-0.000930113
-0.000924672
-0.0009164
-0.000905434
-0.000892024
-0.000876515
-0.000859315
-0.000840874
-0.000821652
-0.000802098
-0.000782628
-0.000763611
-0.000745353
-0.000728096
-0.000712012
-0.000697208
-0.000683731
-0.000671576
-0.000660695
-0.000651007
-0.000642403
-0.000634761
-0.000627947
-0.000621825
-0.000616262
-0.00061113
-0.000606308
-0.000601686
-0.000597166
-0.00059266
-0.000588094
-0.000583402
-0.000578531
-0.000573436
-0.000568084
-0.000562446
-0.000556504
-0.000550243
-0.000543657
-0.000536742
-0.000529498
-0.000521929
-0.000514042
-0.000505843
-0.000497343
-0.00048855
-0.000479473
-0.000470122
-0.000460502
-0.000450619
-0.000440478
-0.000430078
-0.000419419
-0.000408497
-0.00039731
-0.000385852
-0.000374124
-0.000362132
-0.00034989
-0.00033743
-0.000324812
-0.000312118
-0.000299472
-0.000287269
-0.000274272
0.00135691
0.00127612
0.00118842
0.00111188
0.00104323
0.000978353
0.000914891
0.000850982
0.000784739
0.000714282
0.00063779
0.000553517
0.000459779
0.00035496
0.000237525
0.000106041
-4.07862e-05
-0.000204065
-0.000384659
-0.000583115
-0.000799596
-0.0010338
-0.00128492
-0.00155152
-0.00183159
-0.00212245
-0.00242078
-0.00272265
-0.0030236
-0.00331867
-0.00360255
-0.00386968
-0.00411439
-0.00433107
-0.00451428
-0.00465897
-0.00476053
-0.00481506
-0.00481937
-0.00477118
-0.00466917
-0.00451316
-0.00430407
-0.00404391
-0.00373583
-0.003384
-0.00299364
-0.00257084
-0.00212245
-0.00165593
-0.00117913
-0.000700097
-0.000226867
0.000232755
0.000671387
0.00108225
0.0014593
0.00179735
0.00209213
0.00234026
0.00253928
0.00268754
0.00278414
0.0028288
0.00282175
0.00276363
0.00265546
0.00249866
0.00229504
0.00204682
0.00175671
0.00142805
0.00106496
0.000672433
0.000256451
-0.000175988
-0.000616883
-0.00105733
-0.00148769
-0.00189788
-0.0022777
-0.00261726
-0.00290747
-0.00314048
-0.0033103
-0.00341306
-0.00344773
-0.00341616
-0.0033232
-0.00317651
-0.00298623
-0.00276428
-0.00252348
-0.0022766
-0.00203529
-0.00180928
-0.00160577
-0.00142918
-0.00128131
-0.00116174
-0.00106845
-0.000998446
-0.000948315
-0.00091465
-0.000894263
-0.000884287
-0.000882151
-0.000885614
-0.000892755
-0.000901881
-0.000911548
-0.000920563
-0.000927976
-0.000933068
-0.000935332
-0.000934464
-0.000930337
-0.000922991
-0.000912609
-0.000899491
-0.000884034
-0.000866699
-0.000847983
-0.000828391
-0.000808409
-0.000788485
-0.00076901
-0.00075031
-0.000732636
-0.000716168
-0.000701014
-0.000687222
-0.000674784
-0.000663647
-0.000653725
-0.000644908
-0.000637066
-0.000630066
-0.000623768
-0.000618037
-0.000612743
-0.000607766
-0.000602996
-0.000598335
-0.000593695
-0.000589001
-0.000584189
-0.000579206
-0.000574008
-0.00056856
-0.000562836
-0.000556815
-0.000550484
-0.000543834
-0.000536864
-0.000529571
-0.000521961
-0.000514038
-0.000505811
-0.000497287
-0.000488476
-0.000479388
-0.00047003
-0.000460411
-0.000450538
-0.000440414
-0.000430042
-0.000419423
-0.000408555
-0.000397437
-0.000386066
-0.000374444
-0.000362575
-0.000350474
-0.00033817
-0.000325711
-0.000313171
-0.000300654
-0.000288274
-0.000276355
0.00142487
0.00133378
0.00123565
0.00115104
0.00107587
0.00100505
0.000935535
0.000864873
0.000790614
0.000710358
0.000621817
0.000522825
0.000411334
0.000285414
0.000143273
-1.67212e-05
-0.000195992
-0.000395699
-0.000616671
-0.000859324
-0.00112359
-0.00140882
-0.00171375
-0.00203644
-0.00237422
-0.00272372
-0.00308089
-0.00344104
-0.00379893
-0.00414887
-0.00448485
-0.00480065
-0.00509005
-0.00534691
-0.00556541
-0.00574011
-0.00586619
-0.00593955
-0.00595693
-0.005916
-0.00581552
-0.00565557
-0.00543722
-0.0051628
-0.00483584
-0.00446098
-0.00404399
-0.00359155
-0.00311117
-0.00261097
-0.0020995
-0.0015855
-0.00107762
-0.000584287
-0.000113376
0.000327912
0.000733236
0.00109722
0.00141552
0.00168481
0.00190275
0.00206791
0.00217961
0.00223782
0.002243
0.00219596
0.00209784
0.00195006
0.00175436
0.00151284
0.00122804
0.000903107
0.000541966
0.000149473
-0.000268459
-0.000704792
-0.00115136
-0.00159894
-0.00203745
-0.00245619
-0.00284422
-0.00319079
-0.00348586
-0.00372057
-0.00388795
-0.00398308
-0.00400402
-0.00395197
-0.00383141
-0.00365005
-0.00341853
-0.00314979
-0.0028582
-0.00255847
-0.00226441
-0.00198795
-0.00173821
-0.00152112
-0.0013394
-0.00119292
-0.00107944
-0.00099527
-0.000936107
-0.000897516
-0.000875321
-0.000865771
-0.000865558
-0.000871854
-0.000882283
-0.000894831
-0.000907818
-0.000919892
-0.000929998
-0.000937358
-0.000941444
-0.00094195
-0.000938775
-0.000931996
-0.000921844
-0.000908676
-0.000892946
-0.000875173
-0.000855906
-0.000835697
-0.000815073
-0.000794514
-0.000774435
-0.000755177
-0.000737
-0.000720088
-0.000704548
-0.000690424
-0.0006777
-0.000666319
-0.000656186
-0.000647182
-0.000639175
-0.000632023
-0.000625584
-0.000619719
-0.000614297
-0.000609196
-0.000604305
-0.000599526
-0.000594771
-0.000589966
-0.000585048
-0.000579964
-0.000574669
-0.00056913
-0.000563321
-0.000557221
-0.000550818
-0.000544104
-0.000537074
-0.000529729
-0.000522072
-0.000514109
-0.000505847
-0.000497295
-0.000488461
-0.000479357
-0.00046999
-0.000460368
-0.000450501
-0.000440392
-0.000430046
-0.000419465
-0.00040865
-0.000397599
-0.000386313
-0.000374792
-0.000363042
-0.000351074
-0.000338912
-0.000326597
-0.000314188
-0.000301781
-0.00028922
-0.000278305
0.00142836
0.00133017
0.00122474
0.00113426
0.00105394
0.000977846
0.000902301
0.000824276
0.000740786
0.00064893
0.000545978
0.000429374
0.000296734
0.000145855
-2.52663e-05
-0.0002184
-0.000435029
-0.000676284
-0.000942863
-0.00123495
-0.00155215
-0.00189336
-0.00225679
-0.00263988
-0.00303926
-0.00345085
-0.00386984
-0.00429077
-0.00470768
-0.00511416
-0.00550356
-0.00586906
-0.0062039
-0.00650149
-0.00675559
-0.00696046
-0.00711101
-0.00720292
-0.00723283
-0.00719835
-0.0070983
-0.0069329
-0.00670337
-0.00641234
-0.0060637
-0.00566259
-0.0052153
-0.00472914
-0.00421232
-0.00367369
-0.00312254
-0.00256835
-0.00202054
-0.00148818
-0.000979745
-0.000502936
-6.44651e-05
0.00033005
0.000676149
0.000970527
0.00121097
0.00139624
0.00152593
0.00160028
0.00162
0.00158613
0.00149992
0.00136284
0.00117657
0.000943105