/*--------------------------------*- C++ -*----------------------------------*\
  =========                 |
  \\      /  F ield         | OpenFOAM: The Open Source CFD Toolbox
   \\    /   O peration     | Website:  https://openfoam.org
    \\  /    A nd           | Version:  8
     \\/     M anipulation  |
\*---------------------------------------------------------------------------*/
FoamFile
{
    version     2.0;
    format      ascii;
    class       surfaceScalarField;
    location    "0.98";
    object      phi;
}
// * * * * * * * * * * * * * * * * * * * * * * * * * * * * * * * * * * * * * //

dimensions      [0 3 -1 0 0 0 0];

internalField   nonuniform List<scalar> 
24170
(
-1.78852e-12
1.78852e-12
3.47458e-12
-5.2631e-12
1.4915e-11
-1.14404e-11
3.11574e-11
-1.62424e-11
5.11663e-11
-2.00089e-11
7.42803e-11
-2.3114e-11
1.00056e-10
-2.57756e-11
1.28189e-10
-2.81328e-11
1.58475e-10
-3.02866e-11
1.90809e-10
-3.23341e-11
2.25187e-10
-3.43778e-11
2.61691e-10
-3.6504e-11
3.00368e-10
-3.86771e-11
3.40652e-10
-4.02842e-11
3.78427e-10
-3.77745e-11
3.90849e-10
-1.2422e-11
3.00494e-10
9.03548e-11
1.11814e-09
-8.17644e-10
-1.80643e-12
3.59496e-12
1.60215e-11
-2.30911e-11
5.26094e-11
-4.80283e-11
1.03895e-10
-6.7528e-11
1.66838e-10
-8.29519e-11
2.39309e-10
-9.55853e-11
3.19794e-10
-1.06261e-10
4.07132e-10
-1.1547e-10
5.00371e-10
-1.23526e-10
5.98677e-10
-1.3064e-10
7.01182e-10
-1.36883e-10
8.06608e-10
-1.4193e-10
9.12179e-10
-1.44248e-10
1.01043e-09
-1.38531e-10
1.07908e-09
-1.0643e-10
1.04885e-09
1.7809e-11
6.75227e-10
4.63978e-10
2.4685e-09
-6.7513e-10
1.48057e-12
2.11438e-12
3.54488e-11
-5.70593e-11
1.0132e-10
-1.13899e-10
1.92559e-10
-1.58767e-10
3.04043e-10
-1.94436e-10
4.31963e-10
-2.23505e-10
5.73445e-10
-2.47742e-10
7.26105e-10
-2.68131e-10
8.87755e-10
-2.85175e-10
1.05611e-09
-2.98993e-10
1.2283e-09
-3.09073e-10
1.39979e-09
-3.13419e-10
1.56172e-09
-3.06185e-10
1.69436e-09
-2.71168e-10
1.75039e-09
-1.62463e-10
1.61373e-09
1.54472e-10
9.96183e-10
1.08152e-09
3.86901e-09
-4.0433e-10
7.97165e-12
-5.85726e-12
6.23211e-11
-1.11409e-10
1.61971e-10
-2.13549e-10
2.98215e-10
-2.95011e-10
4.63777e-10
-3.59999e-10
6.52963e-10
-4.12691e-10
8.61214e-10
-4.55993e-10
1.08448e-09
-4.91396e-10
1.31872e-09
-5.19412e-10
1.5593e-09
-5.39581e-10
1.80006e-09
-5.4983e-10
2.03123e-09
-5.44583e-10
2.23512e-09
-5.10076e-10
2.37685e-09
-4.12903e-10
2.38524e-09
-1.70855e-10
2.11975e-09
4.19968e-10
1.34034e-09
1.86093e-09
5.2397e-09
-3.03558e-11
1.77558e-11
-2.36131e-11
9.70101e-11
-1.90663e-10
2.3515e-10
-3.51689e-10
4.21396e-10
-4.81257e-10
6.4626e-10
-5.84863e-10
9.01955e-10
-6.68386e-10
1.18187e-09
-7.35912e-10
1.47979e-09
-7.89316e-10
1.78912e-09
-8.28735e-10
2.10192e-09
-8.52385e-10
2.4074e-09
-8.5531e-10
2.68894e-09
-8.26121e-10
2.91853e-09
-7.39669e-10
3.04668e-09
-5.41052e-10
2.98643e-09
-1.10605e-10
2.59898e-09
8.07424e-10
1.72358e-09
2.73632e-09
6.54003e-09
4.23262e-10
3.07184e-11
-5.43315e-11
1.39542e-10
-2.99487e-10
3.20873e-10
-5.3302e-10
5.61803e-10
-7.22187e-10
8.5056e-10
-8.73619e-10
1.17705e-09
-9.9488e-10
1.53225e-09
-1.09111e-09
1.90722e-09
-1.16428e-09
2.29208e-09
-1.21359e-09
2.67467e-09
-1.23498e-09
3.0385e-09
-1.21914e-09
3.35917e-09
-1.14679e-09
3.59851e-09
-9.79009e-10
3.69599e-09
-6.38531e-10
3.56001e-09
2.53699e-11
3.0735e-09
1.29394e-09
2.15728e-09
3.65254e-09
7.73627e-09
9.61032e-10
4.66001e-11
-1.00932e-10
1.89481e-10
-4.42368e-10
4.18374e-10
-7.61913e-10
7.18003e-10
-1.02182e-09
1.07421e-09
-1.22983e-09
1.4744e-09
-1.39507e-09
1.90675e-09
-1.52346e-09
2.35907e-09
-1.61661e-09
2.81756e-09
-1.67208e-09
3.26509e-09
-1.68251e-09
3.67885e-09
-1.6329e-09
4.02671e-09
-1.49464e-09
4.2622e-09
-1.2145e-09
4.31934e-09
-6.95676e-10
4.11284e-09
2.31876e-10
3.55892e-09
1.84786e-09
2.6481e-09
4.56336e-09
8.81058e-09
1.57379e-09
6.49446e-11
-1.65876e-10
2.45806e-10
-6.23229e-10
5.25867e-10
-1.04197e-09
8.87082e-10
-1.38303e-09
1.31277e-09
-1.65551e-09
1.78764e-09
-1.86994e-09
2.29677e-09
-2.03259e-09
2.82431e-09
-2.14415e-09
3.352e-09
-2.19977e-09
3.85737e-09
-2.18788e-09
4.31134e-09
-2.08687e-09
4.67514e-09
-1.85844e-09
4.89722e-09
-1.43658e-09
4.91252e-09
-7.10975e-10
4.65062e-09
4.93774e-10
4.065e-09
2.43348e-09
3.19862e-09
5.42974e-09
9.75032e-09
2.25888e-09
8.50674e-11
-2.50944e-10
3.06782e-10
-8.44944e-10
6.40299e-10
-1.37549e-09
1.06428e-09
-1.80702e-09
1.55938e-09
-2.15061e-09
2.10746e-09
-2.41802e-09
2.69029e-09
-2.61542e-09
3.28809e-09
-2.74195e-09
3.87799e-09
-2.78966e-09
4.43223e-09
-2.74212e-09
4.91625e-09
-2.57088e-09
5.28672e-09
-2.22891e-09
5.49099e-09
-1.64085e-09
5.4708e-09
-6.90785e-10
5.17596e-09
7.88607e-10
4.59522e-09
3.01422e-09
3.80655e-09
6.2184e-09
1.05444e-08
3.01251e-09
1.06021e-10
-3.56965e-10
3.69851e-10
-1.10877e-09
7.5711e-10
-1.76275e-09
1.24264e-09
-2.29255e-09
1.80427e-09
-2.71224e-09
2.42102e-09
-3.03476e-09
3.07128e-09
-3.26569e-09
3.73136e-09
-3.40204e-09
4.37396e-09
-3.43226e-09
4.96673e-09
-3.3349e-09
5.47109e-09
-3.07525e-09
5.84189e-09
-2.59971e-09
6.02949e-09
-1.82844e-09
5.98696e-09
-6.48253e-10
5.68632e-09
1.08924e-09
5.14594e-09
3.5546e-09
4.46396e-09
6.90039e-09
1.1181e-08
3.82736e-09
1.26693e-10
-4.83658e-10
4.31542e-10
-1.41362e-09
8.70016e-10
-2.20122e-09
1.41266e-09
-2.8352e-09
2.03444e-09
-3.33401e-09
2.71157e-09
-3.71189e-09
3.41933e-09
-3.97345e-09
4.13046e-09
-4.11317e-09
4.81392e-09
-4.11571e-09
5.43397e-09
-3.95496e-09
5.9501e-09
-3.59137e-09
6.31831e-09
-2.96792e-09
6.49554e-09
-2.00567e-09
6.44895e-09
-6.01666e-10
6.17191e-09
1.36628e-09
5.70526e-09
4.02125e-09
5.15577e-09
7.44988e-09
1.16466e-08
4.69009e-09
1.22076e-10
-6.05733e-10
4.07724e-10
-1.69927e-09
8.12873e-10
-2.60637e-09
1.30887e-09
-3.33119e-09
1.87231e-09
-3.89746e-09
2.48126e-09
-4.32085e-09
3.1128e-09
-4.60499e-09
3.74175e-09
-4.74211e-09
4.33987e-09
-4.71383e-09
4.87572e-09
-4.4908e-09
5.31536e-09
-4.03101e-09
5.62474e-09
-3.2773e-09
5.77455e-09
-2.15548e-09
5.74859e-09
-5.75707e-10
5.55554e-09
1.55934e-09
5.24158e-09
4.3352e-09
4.89724e-09
7.79422e-09
1.18965e-08
4.64741e-09
1.53251e-10
-7.58985e-10
5.07764e-10
-2.05378e-09
1.00342e-09
-3.10203e-09
1.60406e-09
-3.93183e-09
2.28084e-09
-4.57423e-09
3.00691e-09
-5.04692e-09
3.75438e-09
-5.35246e-09
4.49283e-09
-5.48056e-09
5.18884e-09
-5.40985e-09
5.80651e-09
-5.10847e-09
6.30924e-09
-4.53374e-09
6.66346e-09
-3.63152e-09
6.84495e-09
-2.33697e-09
6.84783e-09
-5.78586e-10
6.69529e-09
1.71188e-09
6.44844e-09
4.58205e-09
6.20718e-09
8.03548e-09
1.20086e-08
6.09504e-09
1.85411e-10
-9.44396e-10
6.10817e-10
-2.47919e-09
1.1976e-09
-3.68882e-09
1.90109e-09
-4.63531e-09
2.68687e-09
-5.36001e-09
3.52331e-09
-5.88336e-09
4.37789e-09
-6.20704e-09
5.21575e-09
-6.31842e-09
5.99968e-09
-6.19378e-09
6.69152e-09
-5.80031e-09
7.25519e-09
-5.0974e-09
7.66164e-09
-4.03798e-09
7.896e-09
-2.57132e-09
7.96605e-09
-6.48637e-10
7.91045e-09
1.76748e-09
7.80286e-09
4.68963e-09
7.74747e-09
8.09086e-09
1.18939e-08
7.86216e-09
2.11217e-10
-1.15561e-09
6.92326e-10
-2.9603e-09
1.34816e-09
-4.34465e-09
2.12607e-09
-5.41322e-09
2.98735e-09
-6.22129e-09
3.89714e-09
-6.79315e-09
4.82037e-09
-7.13027e-09
5.72041e-09
-7.21847e-09
6.55972e-09
-7.03308e-09
7.30215e-09
-6.54274e-09
7.91703e-09
-5.71229e-09
8.38483e-09
-4.50577e-09
8.70392e-09
-2.89041e-09
8.89741e-09
-8.42125e-10
9.01776e-09
1.64712e-09
9.14642e-09
4.56097e-09
9.38585e-09
7.85143e-09
1.14362e-08
9.84361e-09
2.15795e-10
-1.37141e-09
7.03863e-10
-3.44837e-09
1.36236e-09
-5.00315e-09
2.13565e-09
-6.18651e-09
2.98487e-09
-7.07052e-09
3.87631e-09
-7.68459e-09
4.77719e-09
-8.03115e-09
5.65468e-09
-8.09596e-09
6.47712e-09
-7.85552e-09
7.21696e-09
-7.28259e-09
7.85522e-09
-6.35054e-09
8.38672e-09
-5.03728e-09
8.82555e-09
-3.32925e-09
9.20911e-09
-1.22568e-09
9.59922e-09
1.25701e-09
1.00785e-08
4.08166e-09
1.07413e-08
7.18868e-09
1.04974e-08
1.16801e-08
1.73784e-10
-1.54519e-09
5.63004e-10
-3.83759e-09
1.08273e-09
-5.52287e-09
1.68739e-09
-6.79117e-09
2.34733e-09
-7.73046e-09
3.03853e-09
-8.37579e-09
3.73922e-09
-8.73185e-09
4.42948e-09
-8.78622e-09
5.09269e-09
-8.51873e-09
5.71841e-09
-7.90831e-09
6.30607e-09
-6.9382e-09
6.86884e-09
-5.60005e-09
7.43673e-09
-3.89714e-09
8.05789e-09
-1.84684e-09
8.79708e-09
5.17815e-10
9.7308e-09
3.14795e-09
1.09389e-08
5.98056e-09
8.94149e-09
1.24948e-08
4.85274e-11
-1.59372e-09
1.51987e-10
-3.94105e-09
2.84991e-10
-5.65587e-09
4.36132e-10
-6.94231e-09
6.00834e-10
-7.89516e-09
7.78092e-10
-8.55305e-09
9.69736e-10
-8.92349e-09
1.1809e-09
-8.99738e-09
1.42133e-09
-8.75915e-09
1.70715e-09
-8.19413e-09
2.06293e-09
-7.29398e-09
2.52322e-09
-6.06034e-09
3.13318e-09
-4.50709e-09
3.94758e-09
-2.66124e-09
5.02798e-09
-5.62589e-10
6.43812e-09
1.7378e-09
8.23847e-09
4.18021e-09
6.70051e-09
1.04794e-08
-1.9779e-10
-1.39593e-09
-6.44167e-10
-3.49467e-09
-1.24775e-09
-5.05229e-09
-1.95523e-09
-6.23483e-09
-2.72672e-09
-7.12367e-09
-3.52491e-09
-7.75486e-09
-4.31067e-09
-8.13773e-09
-5.04116e-09
-8.2669e-09
-5.66898e-09
-8.13132e-09
-6.14209e-09
-7.72103e-09
-6.40409e-09
-7.03198e-09
-6.39523e-09
-6.0692e-09
-6.05403e-09
-4.84829e-09
-5.31965e-09
-3.39562e-09
-4.13501e-09
-1.74723e-09
-2.45235e-09
5.51422e-11
-2.294e-10
1.95726e-09
3.9134e-09
2.55771e-09
-2.84439e-10
-1.11149e-09
-9.28104e-10
-2.851e-09
-1.8015e-09
-4.17889e-09
-2.83234e-09
-5.20399e-09
-3.96938e-09
-5.98664e-09
-5.16707e-09
-6.55716e-09
-6.37958e-09
-6.92522e-09
-7.55847e-09
-7.088e-09
-8.65248e-09
-7.03731e-09
-9.60822e-09
-6.76529e-09
-1.03716e-08
-6.26857e-09
-1.08898e-08
-5.55106e-09
-1.11128e-08
-4.62525e-09
-1.09962e-08
-3.51227e-09
-1.05024e-08
-2.24094e-09
-9.6013e-09
-8.46002e-10
-8.27764e-09
6.33594e-10
2.158e-09
-6.52224e-09
-3.03527e-10
-8.07965e-10
-9.95215e-10
-2.15931e-09
-1.94279e-09
-3.23131e-09
-3.07313e-09
-4.07365e-09
-4.33402e-09
-4.72574e-09
-5.67924e-09
-5.21195e-09
-7.06259e-09
-5.54187e-09
-8.43578e-09
-5.71482e-09
-9.74809e-09
-5.725e-09
-1.09473e-08
-5.56604e-09
-1.19814e-08
-5.23451e-09
-1.28002e-08
-4.73228e-09
-1.33577e-08
-4.06778e-09
-1.36137e-08
-3.25619e-09
-1.3536e-08
-2.31869e-09
-1.31007e-08
-1.28125e-09
-1.22943e-08
-1.7286e-10
9.7589e-10
-1.11122e-08
-2.70462e-10
-5.37503e-10
-8.97437e-10
-1.53234e-09
-1.77021e-09
-2.35854e-09
-2.82628e-09
-3.01758e-09
-4.01933e-09
-3.53269e-09
-5.30792e-09
-3.92336e-09
-6.65088e-09
-4.19891e-09
-8.00539e-09
-4.3603e-09
-9.32667e-09
-4.40373e-09
-1.05686e-08
-4.32412e-09
-1.1685e-08
-4.11806e-09
-1.26316e-08
-3.78572e-09
-1.33674e-08
-3.33201e-09
-1.38567e-08
-2.76686e-09
-1.40706e-08
-2.10478e-09
-1.39878e-08
-1.364e-09
-1.35954e-08
-5.65264e-10
2.69133e-10
-1.28887e-08
-2.13485e-10
-3.24018e-10
-7.24022e-10
-1.0218e-09
-1.4518e-09
-1.63077e-09
-2.3481e-09
-2.12128e-09
-3.37436e-09
-2.50643e-09
-4.49577e-09
-2.80194e-09
-5.67815e-09
-3.01653e-09
-6.88631e-09
-3.15215e-09
-8.08353e-09
-3.2065e-09
-9.23189e-09
-3.17577e-09
-1.02932e-08
-3.0568e-09
-1.12301e-08
-2.84876e-09
-1.20081e-08
-2.55403e-09
-1.25964e-08
-2.17857e-09
-1.29695e-08
-1.73168e-09
-1.3108e-08
-1.22546e-09
-1.29993e-08
-6.73986e-10
-9.27259e-11
-1.26374e-08
-1.51844e-10
-1.72174e-10
-5.35186e-10
-6.3846e-10
-1.10016e-09
-1.06579e-09
-1.81044e-09
-1.41101e-09
-2.63486e-09
-1.682e-09
-3.54537e-09
-1.89143e-09
-4.51501e-09
-2.04689e-09
-5.51649e-09
-2.15067e-09
-6.52147e-09
-2.20153e-09
-7.50052e-09
-2.19672e-09
-8.42368e-09
-2.13363e-09
-9.26141e-09
-2.01103e-09
-9.98567e-09
-1.82977e-09
-1.05712e-08
-1.59308e-09
-1.09963e-08
-1.30653e-09
-1.12441e-08
-9.77685e-10
-1.13025e-08
-6.15548e-10
-2.30237e-10
-1.1165e-08
-9.67405e-11
-7.54333e-11
-3.64991e-10
-3.7021e-10
-7.78519e-10
-6.52263e-10
-1.31041e-09
-8.79115e-10
-1.93597e-09
-1.05644e-09
-2.63339e-09
-1.19402e-09
-3.38238e-09
-1.2979e-09
-4.16288e-09
-1.37017e-09
-4.95416e-09
-1.41025e-09
-5.73461e-09
-1.41627e-09
-6.48196e-09
-1.38628e-09
-7.17391e-09
-1.31908e-09
-7.78895e-09
-1.21473e-09
-8.30722e-09
-1.07481e-09
-8.71138e-09
-9.02372e-10
-8.98724e-09
-7.01826e-10
-9.12422e-09
-4.78561e-10
-2.38704e-10
-9.11576e-09
-5.3397e-11
-2.20363e-11
-2.28492e-10
-1.95115e-10
-5.14664e-10
-3.66091e-10
-8.91727e-10
-5.02051e-10
-1.34061e-09
-6.07565e-10
-1.84506e-09
-6.89567e-10
-2.39061e-09
-7.52348e-10
-2.96329e-09
-7.97484e-10
-3.54882e-09
-8.24721e-10
-4.13218e-09
-8.3291e-10
-4.69771e-09
-8.20745e-10
-5.22949e-09
-7.87297e-10
-5.71189e-09
-7.32339e-10
-6.13019e-09
-6.56507e-10
-6.47123e-09
-5.61331e-10
-6.72392e-09
-4.4914e-10
-6.87959e-09
-3.22888e-10
-1.85927e-10
-6.93237e-09
-2.31367e-11
1.10042e-12
-1.28751e-10
-8.95003e-11
-3.14501e-10
-1.80341e-10
-5.65212e-10
-2.5134e-10
-8.66842e-10
-3.05935e-10
-1.20802e-09
-3.48388e-10
-1.57909e-09
-3.8128e-10
-1.97099e-09
-4.05581e-10
-2.37452e-09
-4.21196e-10
-2.77993e-09
-4.275e-10
-3.17693e-09
-4.23743e-10
-3.55489e-09
-4.0934e-10
-3.90318e-09
-3.84045e-10
-4.21163e-09
-3.48055e-10
-4.47094e-09
-3.0202e-10
-4.67307e-09
-2.47013e-10
-4.81151e-09
-1.84447e-10
-1.15913e-10
-4.88153e-09
-5.05211e-12
6.15254e-12
-6.22816e-11
-3.22708e-11
-1.72314e-10
-7.03088e-11
-3.24225e-10
-9.94294e-11
-5.08574e-10
-1.21586e-10
-7.18143e-10
-1.38819e-10
-9.47101e-10
-1.52321e-10
-1.19014e-09
-1.62541e-10
-1.44189e-09
-1.69449e-10
-1.69661e-09
-1.72775e-10
-1.94817e-09
-1.72183e-10
-2.19012e-09
-1.67392e-10
-2.41591e-09
-1.58256e-10
-2.61917e-09
-1.44801e-10
-2.79395e-09
-1.2724e-10
-2.935e-09
-1.05957e-10
-3.03797e-09
-8.14783e-11
-5.43988e-11
-3.09948e-09
3.00582e-12
3.14672e-12
-2.2762e-11
-6.50295e-12
-7.75603e-11
-1.55106e-11
-1.54733e-10
-2.22565e-11
-2.48997e-10
-2.73225e-11
-3.56551e-10
-3.12645e-11
-4.7448e-10
-3.43929e-11
-6.00199e-10
-3.6822e-11
-7.31102e-10
-3.85458e-11
-8.6438e-10
-3.94969e-11
-9.96972e-10
-3.95899e-11
-1.12561e-09
-3.87493e-11
-1.24694e-09
-3.6929e-11
-1.35762e-09
-3.41222e-11
-1.4545e-09
-3.03645e-11
-1.53472e-09
-2.57324e-11
-1.59587e-09
-2.03244e-11
-1.4276e-11
-1.636e-09
3.14672e-12
-3.35623e-12
-1.88668e-11
-4.11233e-11
-6.84458e-11
-9.97103e-11
-1.34103e-10
-1.70925e-10
-2.09471e-10
-2.48968e-10
-2.88558e-10
-3.27307e-10
-3.64236e-10
-3.98358e-10
-4.28723e-10
-4.54455e-10
-4.7478e-10
-4.89056e-10
3.60909e-11
-3.60909e-11
1.20998e-10
-8.49072e-11
2.31231e-10
-1.10233e-10
3.46281e-10
-1.1505e-10
4.50441e-10
-1.04159e-10
5.32132e-10
-8.16919e-11
5.83172e-10
-5.10393e-11
5.98075e-10
-1.4903e-11
5.73371e-10
2.47036e-11
5.07152e-10
6.62187e-11
3.985e-10
1.08653e-10
2.47152e-10
1.51348e-10
5.32058e-11
1.93946e-10
-1.83105e-10
2.36311e-10
-4.61562e-10
2.78457e-10
-7.82046e-10
3.20484e-10
-1.14458e-09
3.62536e-10
-1.54933e-09
4.04752e-10
-1.99656e-09
4.47231e-10
-2.48657e-09
4.90003e-10
-3.01957e-09
5.33004e-10
-3.59563e-09
5.76061e-10
-4.21451e-09
6.18882e-10
-4.87556e-09
6.61051e-10
-5.57759e-09
7.02027e-10
-6.31875e-09
7.41157e-10
-7.09643e-09
7.77676e-10
-7.90716e-09
8.10732e-10
-8.74655e-09
8.39394e-10
-9.60924e-09
8.62685e-10
-1.04888e-08
8.79596e-10
-1.1378e-08
8.89121e-10
-1.22682e-08
8.90282e-10
-1.31504e-08
8.82167e-10
-1.40144e-08
8.63957e-10
-1.48493e-08
8.34961e-10
-1.5644e-08
7.94651e-10
-1.63867e-08
7.42688e-10
-1.70656e-08
6.78949e-10
-1.76692e-08
6.03551e-10
-1.8186e-08
5.16862e-10
-1.86055e-08
4.19508e-10
-1.89179e-08
3.12372e-10
-1.91145e-08
1.96595e-10
-1.91881e-08
7.36364e-11
-1.91326e-08
-5.55277e-11
-1.89442e-08
-1.88432e-10
-1.86206e-08
-3.23592e-10
-1.81615e-08
-4.59077e-10
-1.75686e-08
-5.92941e-10
-1.68453e-08
-7.23296e-10
-1.59969e-08
-8.48343e-10
-1.50305e-08
-9.66425e-10
-1.39544e-08
-1.07607e-09
-1.27784e-08
-1.176e-09
-1.15132e-08
-1.26522e-09
-1.01703e-08
-1.34295e-09
-8.76159e-09
-1.40867e-09
-7.29949e-09
-1.4621e-09
-5.79632e-09
-1.50317e-09
-4.26433e-09
-1.53199e-09
-2.71553e-09
-1.5488e-09
-1.16167e-09
-1.55387e-09
3.85862e-10
-1.54753e-09
1.9161e-09
-1.53023e-09
3.41829e-09
-1.50219e-09
4.88177e-09
-1.46348e-09
6.29605e-09
-1.41428e-09
7.65066e-09
-1.35461e-09
8.93505e-09
-1.2844e-09
1.01386e-08
-1.20351e-09
1.12504e-08
-1.11181e-09
1.22596e-08
-1.00922e-09
1.31554e-08
-8.95841e-10
1.39274e-08
-7.71981e-10
1.45657e-08
-6.3827e-10
1.50614e-08
-4.95724e-10
1.54072e-08
-3.45804e-10
1.55977e-08
-1.90442e-10
1.56298e-08
-3.21282e-11
1.55032e-08
1.26564e-10
1.52212e-08
2.81995e-10
1.47902e-08
4.31057e-10
1.422e-08
5.7017e-10
1.35241e-08
6.95887e-10
1.27191e-08
8.05055e-10
1.18241e-08
8.95002e-10
1.08603e-08
9.63719e-10
9.85034e-09
1.01e-09
8.81682e-09
1.03351e-09
7.78195e-09
1.03488e-09
6.7664e-09
1.01554e-09
5.78867e-09
9.77732e-10
4.86442e-09
9.24249e-10
4.00614e-09
8.5828e-10
3.22295e-09
7.83197e-10
2.52057e-09
7.02371e-10
1.90153e-09
6.19042e-10
1.36531e-09
5.3622e-10
9.08682e-10
4.56631e-10
5.26016e-10
3.82666e-10
2.09709e-10
3.16307e-10
-4.93278e-11
2.59037e-10
-2.61059e-10
2.11732e-10
-4.35618e-10
1.74559e-10
-5.8259e-10
1.46972e-10
-7.10389e-10
1.27799e-10
-8.2578e-10
1.15392e-10
-9.33623e-10
1.07842e-10
-1.03684e-09
1.03218e-10
-1.13661e-09
9.97687e-11
-1.23268e-09
9.60748e-11
-1.3238e-09
9.11205e-11
-1.40811e-09
8.43038e-11
-1.4835e-09
7.53948e-11
-1.54797e-09
6.44683e-11
-1.5998e-09
5.18235e-11
-1.6377e-09
3.79075e-11
-1.66095e-09
2.32477e-11
-1.66936e-09
8.40672e-12
-1.66323e-09
-6.12789e-12
-1.64343e-09
-1.98012e-11
-1.61117e-09
-3.22597e-11
-1.568e-09
-4.31654e-11
-1.51571e-09
-5.22931e-11
-1.4562e-09
-5.95126e-11
-1.39141e-09
-6.47841e-11
-1.32326e-09
-6.8149e-11
-1.25355e-09
-6.97183e-11
-1.18389e-09
-6.9657e-11
-1.11572e-09
-6.81694e-11
-1.05024e-09
-6.54841e-11
-9.88396e-10
-6.1839e-11
-9.30926e-10
-5.74703e-11
-8.78325e-10
-5.26014e-11
-8.30888e-10
-4.74364e-11
-7.88734e-10
-4.21542e-11
-7.51828e-10
-3.69066e-11
-7.20011e-10
-3.18165e-11
-6.93031e-10
-2.69797e-11
-6.70565e-10
-2.24661e-11
-6.52243e-10
-1.83224e-11
-6.37667e-10
-1.45758e-11
-6.2643e-10
-1.1237e-11
-6.18127e-10
-8.30336e-12
-6.12364e-10
-5.7622e-12
-6.08771e-10
-3.59339e-12
-6.06997e-10
-1.77438e-12
-6.06728e-10
-2.68747e-13
-6.07677e-10
9.48617e-13
-6.09578e-10
1.9015e-12
-6.12209e-10
2.63066e-12
-6.1537e-10
3.16089e-12
-6.1889e-10
3.52019e-12
-6.22625e-10
3.73483e-12
-6.26454e-10
3.82944e-12
-6.30281e-10
3.82699e-12
-6.3403e-10
3.74889e-12
-6.37645e-10
3.61487e-12
-6.41088e-10
3.4429e-12
-6.44337e-10
3.24881e-12
-6.47382e-10
3.04588e-12
-6.50226e-10
2.8439e-12
-6.52874e-10
2.64817e-12
-6.55333e-10
2.45809e-12
-6.57598e-10
2.26566e-12
-6.59652e-10
2.05385e-12
-6.61447e-10
1.79503e-12
-6.62897e-10
1.44965e-12
-6.63861e-10
9.64283e-13
-6.64155e-10
2.94363e-13
-6.63461e-10
-6.94735e-13
-6.61419e-10
-2.04157e-12
-6.57532e-10
-3.88677e-12
-6.51134e-10
-6.39784e-12
-6.4131e-10
-9.8246e-12
-6.2664e-10
-1.46699e-11
-6.04037e-10
-2.26033e-11
-5.69954e-10
-3.40826e-11
-7.22757e-11
-4.97678e-10
5.90014e-11
-9.50923e-11
1.80204e-10
-2.0611e-10
3.20693e-10
-2.50722e-10
4.46849e-10
-2.41206e-10
5.31671e-10
-1.88981e-10
5.54085e-10
-1.04106e-10
4.98111e-10
4.93471e-12
3.51999e-10
1.31209e-10
1.07441e-10
2.69262e-10
-2.41282e-10
4.14942e-10
-6.97876e-10
5.65247e-10
-1.26464e-09
7.18115e-10
-1.94294e-09
8.72243e-10
-2.73352e-09
1.02689e-09
-3.6368e-09
1.18173e-09
-4.65297e-09
1.33665e-09
-5.78208e-09
1.49165e-09
-7.02401e-09
1.64668e-09
-8.37832e-09
1.80154e-09
-9.84414e-09
1.95583e-09
-1.14199e-08
2.10881e-09
-1.31033e-08
2.25943e-09
-1.48907e-08
2.40623e-09
-1.6777e-08
2.5474e-09
-1.87557e-08
2.68074e-09
-2.08183e-08
2.80373e-09
-2.29542e-08
2.91355e-09
-2.51506e-08
3.00717e-09
-2.73926e-08
3.0814e-09
-2.96629e-08
3.133e-09
-3.19421e-08
3.15876e-09
-3.42085e-08
3.1556e-09
-3.6439e-08
3.1207e-09
-3.86084e-08
3.05158e-09
-4.06906e-08
2.94619e-09
-4.26587e-08
2.80305e-09
-4.44854e-08
2.6213e-09
-4.61435e-08
2.40078e-09
-4.76066e-08
2.14206e-09
-4.88495e-08
1.84652e-09
-4.9849e-08
1.5163e-09
-5.05838e-08
1.15433e-09
-5.10357e-08
7.64231e-10
-5.11894e-08
3.50323e-10
-5.10334e-08
-8.23547e-11
-5.05597e-08
-5.29208e-10
-4.97645e-08
-9.83696e-10
-4.86478e-08
-1.44022e-09
-4.7214e-08
-1.89287e-09
-4.54712e-08
-2.33581e-09
-4.3431e-08
-2.76347e-09
-4.11087e-08
-3.17067e-09
-3.85224e-08
-3.55271e-09
-3.56929e-08
-3.90552e-09
-3.26432e-08
-4.2257e-09
-2.93979e-08
-4.51058e-09
-2.59826e-08
-4.75821e-09
-2.24239e-08
-4.96737e-09
-1.87485e-08
-5.13752e-09
-1.4983e-08
-5.26868e-09
-1.11536e-08
-5.36134e-09
-7.28608e-09
-5.41632e-09
-3.40534e-09
-5.43461e-09
4.64314e-10
-5.41718e-09
4.29897e-09
-5.36489e-09
8.07515e-09
-5.27838e-09
1.17698e-08
-5.1581e-09
1.53597e-08
-5.0042e-09
1.88215e-08
-4.81642e-09
2.21313e-08
-4.59415e-09
2.52643e-08
-4.33655e-09
2.81952e-08
-4.04271e-09
3.08978e-08
-3.71185e-09
3.33456e-08
-3.34357e-09
3.55117e-08
-2.93813e-09
3.73701e-08
-2.49669e-09
3.8896e-08
-2.02161e-09
4.00669e-08
-1.51665e-09
4.08636e-08
-9.87169e-10
4.12716e-08
-4.40165e-10
4.12822e-08
1.15956e-10
4.08941e-08
6.70173e-10
4.01131e-08
1.21198e-09
3.89543e-08
1.72896e-09
3.74415e-08
2.20873e-09
3.56073e-08
2.63926e-09
3.34927e-08
3.00957e-09
3.1146e-08
3.31047e-09
2.86208e-08
3.53516e-09
2.59746e-08
3.67976e-09
2.32658e-08
3.7436e-09
2.05521e-08
3.72929e-09
1.78873e-08
3.64254e-09
1.53198e-08
3.49169e-09
1.28909e-08
3.28718e-09
1.06334e-08
3.04075e-09
8.57095e-09
2.76479e-09
6.71825e-09
2.47174e-09
5.08094e-09
2.17354e-09
3.65633e-09
1.88124e-09
2.43428e-09
1.60471e-09
1.39838e-09
1.35221e-09
5.27395e-10
1.13002e-09
-2.02962e-10
9.42089e-10
-8.18123e-10
7.89719e-10
-1.3427e-09
6.71546e-10
-1.79877e-09
5.83871e-10
-2.20463e-09
5.21252e-10
-2.57402e-09
4.77233e-10
-2.91597e-09
4.45169e-10
-3.23515e-09
4.18951e-10
-3.53262e-09
3.93536e-10
-3.80673e-09
3.6523e-10
-4.05417e-09
3.3175e-10
-4.27089e-09
2.92112e-10
-4.45283e-09
2.46412e-10
-4.59657e-09
1.95557e-10
-4.69967e-09
1.41007e-10
-4.76095e-09
8.45299e-11
-4.78055e-09
2.80036e-11
-4.75991e-09
-2.67638e-11
-4.70162e-09
-7.80916e-11
-4.60928e-09
-1.24595e-10
-4.48727e-09
-1.65178e-10
-4.34049e-09
-1.99074e-10
-4.17415e-09
-2.25857e-10
-3.99351e-09
-2.45416e-10
-3.80374e-09
-2.57925e-10
-3.60965e-09
-2.63804e-10
-3.41565e-09
-2.63659e-10
-3.22558e-09
-2.58239e-10
-3.04269e-09
-2.48375e-10
-2.86959e-09
-2.34934e-10
-2.70829e-09
-2.18776e-10
-2.56017e-09
-2.00718e-10
-2.4261e-09
-1.81508e-10
-2.30645e-09
-1.61808e-10
-2.20118e-09
-1.42178e-10
-2.10991e-09
-1.23079e-10
-2.03202e-09
-1.04873e-10
-1.96666e-09
-8.78272e-11
-1.91286e-09
-7.21246e-11
-1.86956e-09
-5.78758e-11
-1.83566e-09
-4.51296e-11
-1.81008e-09
-3.38853e-11
-1.79174e-09
-2.41033e-11
-1.77962e-09
-1.57152e-11
-1.77276e-09
-8.6329e-12
-1.77028e-09
-2.75214e-12
-1.77136e-09
2.03538e-12
-1.7753e-09
5.83805e-12
-1.78144e-09
8.77201e-12
-1.78922e-09
1.09438e-11
-1.79816e-09
1.24569e-11
-1.80784e-09
1.341e-11
-1.8179e-09
1.38953e-11
-1.82807e-09
1.39997e-11
-1.83813e-09
1.38034e-11
-1.8479e-09
1.33806e-11
-1.85725e-09
1.27985e-11
-1.86612e-09
1.21159e-11
-1.87445e-09
1.13814e-11
-1.88224e-09
1.06301e-11
-1.88947e-09
9.87973e-12
-1.89614e-09
9.12562e-12
-1.90221e-09
8.33494e-12
-1.9076e-09
7.44115e-12
-1.91214e-09
6.33832e-12
-1.91557e-09
4.8769e-12
-1.91746e-09
2.85851e-12
-1.91722e-09
5.94942e-14
-1.91405e-09
-3.86865e-12
-1.90686e-09
-9.22909e-12
-1.89427e-09
-1.64817e-11
-1.87446e-09
-2.62039e-11
-1.84503e-09
-3.9256e-11
-1.80248e-09
-5.72176e-11
-1.74146e-09
-8.36281e-11
-1.65214e-09
-1.23405e-10
-2.03876e-10
-1.52054e-09
4.047e-11
-1.35562e-10
1.05169e-10
-2.70809e-10
1.49605e-10
-2.95158e-10
1.38949e-10
-2.30549e-10
4.5343e-11
-9.53753e-11
-1.53396e-10
9.46329e-11
-4.74681e-10
3.26219e-10
-9.3195e-10
5.88479e-10
-1.53537e-09
8.72678e-10
-2.29248e-09
1.17205e-09
-3.20877e-09
1.48154e-09
-4.28816e-09
1.7975e-09
-5.53333e-09
2.11741e-09
-6.94604e-09
2.43961e-09
-8.52729e-09
2.76298e-09
-1.02773e-08
3.08672e-09
-1.21958e-08
3.41009e-09
-1.42813e-08
3.7322e-09
-1.65316e-08
4.05183e-09
-1.89431e-08
4.36728e-09
-2.15105e-08
4.67628e-09
-2.4227e-08
4.97589e-09
-2.70832e-08
5.26248e-09
-3.00676e-08
5.53178e-09
-3.31658e-08
5.77886e-09
-3.63603e-08
5.99832e-09
-3.96311e-08
6.1843e-09
-4.29547e-08
6.33074e-09
-4.63047e-08
6.43146e-09
-4.96521e-08
6.48041e-09
-5.29652e-08
6.47185e-09
-5.62102e-08
6.40054e-09
-5.93514e-08
6.26196e-09
-6.23523e-08
6.05247e-09
-6.51756e-08
5.76952e-09
-6.77843e-08
5.41172e-09
-7.0142e-08
4.97904e-09
-7.22141e-08
4.4728e-09
-7.39677e-08
3.89576e-09
-7.53733e-08
3.2521e-09
-7.64044e-08
2.54736e-09
-7.70384e-08
1.78835e-09
-7.72572e-08
9.83035e-10
-7.70473e-08
1.40413e-10
-7.63998e-08
-7.29858e-10
-7.53116e-08
-1.61736e-09
-7.3784e-08
-2.51131e-09
-7.18233e-08
-3.40092e-09
-6.94406e-08
-4.27558e-09
-6.66514e-08
-5.12503e-09
-6.34752e-08
-5.93966e-09
-5.99352e-08
-6.71067e-09
-5.60577e-08
-7.43025e-09
-5.18714e-08
-8.09176e-09
-4.74074e-08
-8.68978e-09
-4.26978e-08
-9.22018e-09
-3.77758e-08
-9.68014e-09
-3.26751e-08
-1.0068e-08
-2.74292e-08
-1.03834e-08
-2.20711e-08
-1.06268e-08
-1.66332e-08
-1.07993e-08
-1.11468e-08
-1.09027e-08
-5.64251e-09
-1.09389e-08
-1.49746e-10
-1.09099e-08
5.30243e-09
-1.08171e-08
1.06853e-08
-1.06613e-08
1.59705e-08
-1.04433e-08
2.11293e-08
-1.01629e-08
2.61321e-08
-9.81926e-09
3.09485e-08
-9.41054e-09
3.55465e-08
-8.93454e-09
3.98925e-08
-8.38872e-09
4.39513e-08
-7.77065e-09
4.76862e-08
-7.07842e-09
5.10592e-08
-6.31118e-09
5.40321e-08
-5.46961e-09
5.6567e-08
-4.55649e-09
5.86275e-08
-3.57718e-09
6.01804e-08
-2.54002e-09
6.11969e-08
-1.45663e-09
6.16548e-08
-3.42021e-10
6.15399e-08
7.8512e-10
6.08482e-08
1.9037e-09
5.95872e-08
2.98997e-09
5.77771e-08
4.01883e-09
5.54515e-08
4.96484e-09
5.26575e-08
5.80359e-09
4.94548e-08
6.51313e-09
4.59145e-08
7.07549e-09
4.21163e-08
7.47795e-09
3.81458e-08
7.7141e-09
3.40907e-08
7.78436e-09
3.00372e-08
7.69607e-09
2.6066e-08
7.46294e-09
2.22491e-08
7.10407e-09
1.86472e-08
6.64259e-09
1.53078e-08
6.10418e-09
1.2264e-08
5.51554e-09
9.53444e-09
4.90314e-09
7.12366e-09
4.29202e-09
5.02354e-09
3.70482e-09
3.21498e-09
3.16077e-09
1.67022e-09
2.67478e-09
3.55733e-10
2.25658e-09
-7.64774e-10
1.91022e-09
-1.72728e-09
1.63405e-09
-2.56471e-09
1.4213e-09
-3.30496e-09
1.2615e-09
-3.96966e-09
1.14193e-09
-4.5738e-09
1.04931e-09
-5.12614e-09
9.71295e-10
-5.63019e-09
8.97579e-10
-6.08546e-09
8.20505e-10
-6.48894e-09
7.35226e-10
-6.83634e-09
6.39512e-10
-7.12326e-09
5.33336e-10
-7.34605e-09
4.18347e-10
-7.50239e-09
2.97343e-10
-7.59163e-09
1.73778e-10
-7.61498e-09
5.13481e-11
-7.5754e-09
-6.63391e-11
-7.47749e-09
-1.76007e-10
-7.32719e-09
-2.74896e-10
-7.1315e-09
-3.60863e-10
-6.89814e-09
-4.32439e-10
-6.63516e-09
-4.88831e-10
-6.35069e-09
-5.29888e-10
-6.05258e-09
-5.56038e-10
-5.74819e-09
-5.68193e-10
-5.4442e-09
-5.67653e-10
-5.14644e-09
-5.55992e-10
-4.85986e-09
-5.34955e-10
-4.58844e-09
-5.06358e-10
-4.33522e-09
-4.71998e-10
-4.10235e-09
-4.33588e-10
-3.89116e-09
-3.92694e-10
-3.70226e-09
-3.50707e-10
-3.53563e-09
-3.08811e-10
-3.39072e-09
-2.67983e-10
-3.2666e-09
-2.28994e-10
-3.16201e-09
-1.92417e-10
-3.07549e-09
-1.58652e-10
-3.00542e-09
-1.27945e-10
-2.95014e-09
-1.00411e-10
-2.90796e-09
-7.60593e-11
-2.87725e-09
-5.48158e-11
-2.85642e-09
-3.6544e-11
-2.84399e-09
-2.10627e-11
-2.83858e-09
-8.16036e-12
-2.83894e-09
2.38955e-12
-2.84392e-09
1.08239e-11
-2.85253e-09
1.73769e-11
-2.86386e-09
2.22782e-11
-2.87715e-09
2.57483e-11
-2.89174e-09
2.79967e-11
-2.90707e-09
2.92212e-11
-2.92267e-09
2.96067e-11
-2.9382e-09
2.9325e-11
-2.95335e-09
2.8534e-11
-2.96793e-09
2.73764e-11
-2.98179e-09
2.59765e-11
-2.99484e-09
2.44358e-11
-3.00704e-09
2.28264e-11
-3.01834e-09
2.11827e-11
-3.02871e-09
1.94908e-11
-3.03805e-09
1.76768e-11
-3.0462e-09
1.55951e-11
-3.05288e-09
1.3017e-11
-3.05763e-09
9.62233e-12
-3.05976e-09
4.99372e-12
-3.05832e-09
-1.38155e-12
-3.05205e-09
-1.01431e-11
-3.03926e-09
-2.20171e-11
-3.01783e-09
-3.79069e-11
-2.98507e-09
-5.89616e-11
-2.93752e-09
-8.68127e-11
-2.87057e-09
-1.24166e-10
-2.77813e-09
-1.76071e-10
-2.65027e-09
-2.51261e-10
-3.65783e-10
-2.48836e-09
-2.88771e-12
-1.32675e-10
-5.38313e-11
-2.19865e-10
-1.87896e-10
-1.61094e-10
-4.33266e-10
1.4821e-11
-8.12417e-10
2.83775e-10
-1.34354e-09
6.25757e-10
-2.04112e-09
1.0238e-09
-2.91664e-09
1.464e-09
-3.97917e-09
1.93521e-09
-5.23582e-09
2.4287e-09
-6.69208e-09
2.9378e-09
-8.35209e-09
3.45752e-09
-1.02188e-08
3.98416e-09
-1.22942e-08
4.51494e-09
-1.45788e-08
5.04762e-09
-1.70723e-08
5.58017e-09
-1.97726e-08
6.11044e-09
-2.26763e-08
6.63589e-09
-2.57778e-08
7.15336e-09
-2.90695e-08
7.6589e-09
-3.25408e-08
8.14765e-09
-3.61787e-08
8.61378e-09
-3.99667e-08
9.05049e-09
-4.3885e-08
9.45009e-09
-4.79103e-08
9.80416e-09
-5.20157e-08
1.01037e-08
-5.61708e-08
1.03394e-08
-6.03418e-08
1.05017e-08
-6.4492e-08
1.05817e-08
-6.85822e-08
1.05706e-08
-7.25711e-08
1.04607e-08
-7.64159e-08
1.02453e-08
-8.00732e-08
9.91925e-09
-8.34996e-08
9.47892e-09
-8.66527e-08
8.9226e-09
-8.94915e-08
8.25051e-09
-9.19774e-08
7.46493e-09
-9.40748e-08
6.57024e-09
-9.57519e-08
5.57285e-09
-9.69809e-08
4.48111e-09
-9.77388e-08
3.30521e-09
-9.80073e-08
2.05692e-09
-9.77737e-08
7.49437e-10
-9.70305e-08
-6.0285e-10
-9.57754e-08
-1.9849e-09
-9.40118e-08
-3.38097e-09
-9.17479e-08
-4.77526e-09
-8.89967e-08
-6.15213e-09
-8.57758e-08
-7.49642e-09
-8.21071e-08
-8.79376e-09
-7.80159e-08
-1.00308e-08
-7.3531e-08
-1.11956e-08
-6.86835e-08
-1.22777e-08
-6.3507e-08
-1.32683e-08
-5.80363e-08
-1.41605e-08
-5.23072e-08
-1.49493e-08
-4.63559e-08
-1.56314e-08
-4.02186e-08
-1.62054e-08
-3.39308e-08
-1.66712e-08
-2.75272e-08
-1.70304e-08
-2.10412e-08
-1.72852e-08
-1.45052e-08
-1.74387e-08
-7.95011e-09
-1.7494e-08
-1.40591e-09
-1.74542e-08
5.09848e-09
-1.73215e-08
1.15345e-08
-1.70973e-08
1.78732e-08
-1.6782e-08
2.40854e-08
-1.63752e-08
3.01408e-08
-1.58746e-08
3.60073e-08
-1.52771e-08
4.16509e-08
-1.45782e-08
4.70351e-08
-1.37729e-08
5.21208e-08
-1.28563e-08
5.68661e-08
-1.18238e-08
6.1227e-08
-1.0672e-08
6.51572e-08
-9.39984e-09
6.86097e-08
-8.00899e-09
7.15374e-08
-6.50488e-09
7.38947e-08
-4.89735e-09
7.56394e-08
-3.20129e-09
7.67343e-08
-1.43698e-09
7.71499e-08
3.69599e-10
7.68663e-08
2.18726e-09
7.58762e-08
3.98007e-09
7.41865e-08
5.70856e-09
7.182e-08
7.33126e-09
6.88171e-08
8.80657e-09
6.52351e-08
1.00951e-08
6.11486e-08
1.1162e-08
5.66468e-08
1.19798e-08
5.18308e-08
1.25301e-08
4.68094e-08
1.28057e-08
4.16947e-08
1.28108e-08
3.65961e-08
1.25615e-08
3.16161e-08
1.20841e-08
2.68449e-08
1.14138e-08
2.23574e-08
1.05917e-08
1.82103e-08
9.66261e-09
1.44412e-08
8.67231e-09
1.1068e-08
7.66514e-09
8.09098e-09
6.68188e-09
5.494e-09
5.75775e-09