/*--------------------------------*- C++ -*----------------------------------*\
  =========                 |
  \\      /  F ield         | OpenFOAM: The Open Source CFD Toolbox
   \\    /   O peration     | Website:  https://openfoam.org
    \\  /    A nd           | Version:  8
     \\/     M anipulation  |
\*---------------------------------------------------------------------------*/
FoamFile
{
    version     2.0;
    format      ascii;
    class       volVectorField;
    location    "0.98";
    object      U;
}
// * * * * * * * * * * * * * * * * * * * * * * * * * * * * * * * * * * * * * //

dimensions      [0 1 -1 0 0 0 0];

internalField   nonuniform List<vector> 
12225
(
(-6.26659e-06 8.49636e-07 0)
(-2.80533e-06 -4.83464e-07 0)
(2.45878e-05 -1.21591e-06 0)
(6.86246e-05 -1.85203e-06 0)
(0.000125994 -2.38723e-06 0)
(0.000193935 -2.88897e-06 0)
(0.000270833 -3.38016e-06 0)
(0.000355543 -3.8844e-06 0)
(0.000447294 -4.42461e-06 0)
(0.000545616 -5.03552e-06 0)
(0.000650377 -5.77441e-06 0)
(0.00076182 -6.73786e-06 0)
(0.000880549 -8.09563e-06 0)
(0.00100688 -1.00999e-05 0)
(0.00113813 -1.23707e-05 0)
(0.00126312 -1.0366e-05 0)
(0.00130372 -9.01039e-06 0)
(-8.31949e-05 0.000926646 0)
(-1.28156e-05 2.15817e-06 0)
(5.07103e-06 -7.467e-06 0)
(8.78974e-05 -1.68931e-05 0)
(0.000218271 -2.49402e-05 0)
(0.000386936 -3.19949e-05 0)
(0.000586055 -3.84808e-05 0)
(0.000810616 -4.46721e-05 0)
(0.0010568 -5.07457e-05 0)
(0.0013216 -5.68413e-05 0)
(0.00160252 -6.31089e-05 0)
(0.00189727 -6.97191e-05 0)
(0.00220324 -7.6797e-05 0)
(0.00251599 -8.41078e-05 0)
(0.00282439 -8.97465e-05 0)
(0.0030972 -8.41126e-05 0)
(0.00324141 -2.12689e-05 0)
(0.0029954 0.000290381 0)
(0.00032229 0.00233553 0)
(-1.48358e-05 2.48825e-06 0)
(2.53454e-05 -2.37875e-05 0)
(0.000166268 -5.09351e-05 0)
(0.000383618 -7.44071e-05 0)
(0.000662868 -9.51333e-05 0)
(0.000991422 -0.000114108 0)
(0.00136062 -0.00013202 0)
(0.00176347 -0.000149258 0)
(0.00219392 -0.000166033 0)
(0.00264611 -0.000182434 0)
(0.00311352 -0.0001983 0)
(0.00358721 -0.000212702 0)
(0.00405171 -0.000222326 0)
(0.00447455 -0.000216415 0)
(0.0047809 -0.000159433 0)
(0.00478359 7.07147e-05 0)
(0.00409133 0.000894877 0)
(0.000935431 0.00400647 0)
(-1.34354e-05 -8.57348e-08 0)
(5.63492e-05 -5.23282e-05 0)
(0.000257959 -0.000107161 0)
(0.00056222 -0.000155101 0)
(0.00095004 -0.000197621 0)
(0.00140443 -0.000236407 0)
(0.00191289 -0.000272656 0)
(0.00246473 -0.00030692 0)
(0.00304998 -0.000339285 0)
(0.00365806 -0.000369326 0)
(0.00427611 -0.000395624 0)
(0.00488567 -0.000414277 0)
(0.00545576 -0.000414868 0)
(0.0059275 -0.000369506 0)
(0.00618216 -0.000201383 0)
(0.00596943 0.000305835 0)
(0.00487708 0.00176133 0)
(0.00168626 0.00577824 0)
(-9.56464e-06 -7.80754e-06 0)
(9.61206e-05 -9.58437e-05 0)
(0.000360499 -0.000188358 0)
(0.000750614 -0.00027005 0)
(0.00124342 -0.000342737 0)
(0.00181794 -0.00040879 0)
(0.00245766 -0.000469863 0)
(0.00314773 -0.00052648 0)
(0.0038734 -0.000578176 0)
(0.00461811 -0.000623222 0)
(0.00536088 -0.000657502 0)
(0.00607148 -0.000671514 0)
(0.00670138 -0.000643076 0)
(0.00716613 -0.000519711 0)
(0.00731498 -0.000175311 0)
(0.00687984 0.000692276 0)
(0.00551135 0.00278654 0)
(0.00252277 0.00748871 0)
(-4.01687e-06 -2.27922e-05 0)
(0.000142396 -0.00015733 0)
(0.000470618 -0.000297608 0)
(0.000944181 -0.000422477 0)
(0.00153652 -0.000533825 0)
(0.00222306 -0.000634578 0)
(0.00298321 -0.00072664 0)
(0.00379755 -0.000810134 0)
(0.00464584 -0.00088339 0)
(0.00550457 -0.000942275 0)
(0.00634348 -0.000978154 0)
(0.00711979 -0.000973034 0)
(0.00776828 -0.000888784 0)
(0.00818501 -0.000643944 0)
(0.00820559 -6.4598e-05 0)
(0.00758448 0.00121068 0)
(0.00607771 0.00388961 0)
(0.00340341 0.00907449 0)
(2.52791e-06 -4.69867e-05 0)
(0.000192624 -0.000239854 0)
(0.000584246 -0.000438078 0)
(0.00113711 -0.000615548 0)
(0.00182134 -0.000773983 0)
(0.00260915 -0.000916626 0)
(0.00347591 -0.00104527 0)
(0.00439736 -0.00115908 0)
(0.00534736 -0.00125431 0)
(0.00629493 -0.00132312 0)
(0.00720034 -0.00135039 0)
(0.00800908 -0.00130704 0)
(0.00864287 -0.00113633 0)
(0.00898781 -0.000727656 0)
(0.00888498 0.000131027 0)
(0.00813819 0.00182727 0)
(0.00661625 0.00500985 0)
(0.00430128 0.0105119 0)
(9.47847e-06 -8.21101e-05 0)
(0.000244002 -0.000346256 0)
(0.000696537 -0.0006126 0)
(0.00132236 -0.000851839 0)
(0.00208834 -0.00106541 0)
(0.00296384 -0.00125657 0)
(0.00392032 -0.00142648 0)
(0.00492872 -0.00157265 0)
(0.00595692 -0.00168824 0)
(0.00696663 -0.00176028 0)
(0.00790949 -0.00176547 0)
(0.00872173 -0.00166186 0)
(0.00931764 -0.00137363 0)
(0.00958397 -0.000765093 0)
(0.00938292 0.000399126 0)
(0.00857952 0.00250155 0)
(0.0071404 0.00609714 0)
(0.00519585 0.011786 0)
(1.63199e-05 -0.000129522 0)
(0.000293537 -0.000478855 0)
(0.000801955 -0.000823294 0)
(0.00149178 -0.00113291 0)
(0.00232656 -0.00140894 0)
(0.00327317 -0.00165431 0)
(0.0042995 -0.00186896 0)
(0.00537199 -0.0020479 0)
(0.00645297 -0.00218015 0)
(0.00749775 -0.00224634 0)
(0.00845123 -0.00221375 0)
(0.00924409 -0.00202711 0)
(0.00978974 -0.0015934 0)
(0.00998516 -0.000759222 0)
(0.00972359 0.000717753 0)
(0.00893074 0.00319068 0)
(0.00764618 0.00710835 0)
(0.00606707 0.0128827 0)
(2.25949e-05 -0.000190052 0)
(0.000338114 -0.000639078 0)
(0.000894406 -0.00107114 0)
(0.00163624 -0.00145884 0)
(0.00252379 -0.00180357 0)
(0.00352187 -0.00210761 0)
(0.00459535 -0.00236899 0)
(0.00570682 -0.0025794 0)
(0.00681408 -0.00272274 0)
(0.00786765 -0.00277235 0)
(0.0088084 -0.00268562 0)
(0.00956589 -0.00239492 0)
(0.0100589 -0.00179405 0)
(0.0102019 -0.000720999 0)
(0.00992263 0.0010584 0)
(0.00919918 0.00385223 0)
(0.00811787 0.00800597 0)
(0.0068924 0.0137877 0)
(2.78943e-05 -0.000263896 0)
(0.00037459 -0.000826993 0)
(0.000967428 -0.00135543 0)
(0.00174589 -0.00182768 0)
(0.00266692 -0.00224591 0)
(0.00369379 -0.00261152 0)
(0.00478916 -0.00292002 0)
(0.00591284 -0.00315901 0)
(0.00701958 -0.00330657 0)
(0.00805734 -0.00332833 0)
(0.00896625 -0.00317228 0)
(0.00967914 -0.00276074 0)
(0.0101253 -0.00197971 0)
(0.0102404 -0.000667891 0)
(0.00998565 0.00138882 0)
(0.00937885 0.00444594 0)
(0.00853101 0.00875712 0)
(0.00764485 0.014485 0)
(3.16215e-05 -0.000343406 0)
(0.000397892 -0.00102303 0)
(0.00101061 -0.00164673 0)
(0.0018053 -0.00220095 0)
(0.00273633 -0.00268933 0)
(0.00376617 -0.00311243 0)
(0.00485646 -0.00346305 0)
(0.00596576 -0.00372452 0)
(0.00704783 -0.00386926 0)
(0.00805065 -0.00385604 0)
(0.00891675 -0.00362554 0)
(0.00958548 -0.00309384 0)
(0.00999884 -0.00214511 0)
(0.0101126 -0.000626177 0)
(0.00991434 0.00165165 0)
(0.00944637 0.00489495 0)
(0.00882711 0.00928684 0)
(0.00823808 0.0149205 0)
(3.4472e-05 -0.000430981 0)
(0.000410624 -0.00123493 0)
(0.00102891 -0.00195738 0)
(0.00182255 -0.00259507 0)
(0.0027437 -0.00315384 0)
(0.00375483 -0.00363349 0)
(0.00481754 -0.00402389 0)
(0.00589051 -0.00430394 0)
(0.0069282 -0.0044405 0)
(0.00788076 -0.0043862 0)
(0.00869547 -0.00407604 0)
(0.00932048 -0.00342287 0)
(0.0097117 -0.00231341 0)
(0.00984379 -0.000607446 0)
(0.00972507 0.00185525 0)
(0.00941319 0.0052351 0)
(0.00902431 0.00965722 0)
(0.00871589 0.0151646 0)
(3.63175e-05 -0.00053929 0)
(0.000409235 -0.00149454 0)
(0.00101244 -0.00233275 0)
(0.00177923 -0.00306628 0)
(0.00266054 -0.00370446 0)
(0.00361986 -0.00424636 0)
(0.00462041 -0.00467848 0)
(0.0056229 -0.00497472 0)
(0.00658493 -0.00509612 0)
(0.00746174 -0.00498967 0)
(0.00820866 -0.00458644 0)
(0.00878577 -0.00379956 0)
(0.00916488 -0.00252361 0)
(0.00933906 -0.000637725 0)
(0.0093333 0.00198476 0)
(0.00921284 0.0054576 0)
(0.00908385 0.00985466 0)
(0.00907673 0.0151808 0)
(3.59646e-05 -0.000667099 0)
(0.00038414 -0.00179907 0)
(0.000939209 -0.00276758 0)
(0.00163861 -0.00360623 0)
(0.00243467 -0.00432974 0)
(0.00329386 -0.00493675 0)
(0.00418342 -0.0054103 0)
(0.00506895 -0.00571928 0)
(0.00591447 -0.00581946 0)
(0.00668379 -0.00565374 0)
(0.00734364 -0.00515227 0)
(0.00786831 -0.00423304 0)
(0.00824582 -0.00280408 0)
(0.00848486 -0.000768982 0)
(0.00862092 0.00196308 0)
(0.00871893 0.0054625 0)
(0.00886935 0.00976135 0)
(0.00917512 0.014838 0)
(3.18696e-05 -0.000806477 0)
(0.000323363 -0.00212955 0)
(0.000781889 -0.0032345 0)
(0.00135504 -0.00417999 0)
(0.00200158 -0.00498833 0)
(0.00269409 -0.00565851 0)
(0.00340714 -0.00617072 0)
(0.00411484 -0.00648978 0)
(0.00479135 -0.00656784 0)
(0.0054126 -0.00634647 0)
(0.00595925 -0.00575883 0)
(0.00642064 -0.00473243 0)
(0.00679923 -0.0031932 0)
(0.00711459 -0.00107163 0)
(0.00740585 0.00168885 0)
(0.00773093 0.00512199 0)
(0.00816147 0.0092288 0)
(0.00877465 0.0139711 0)
(2.23942e-05 -0.000936782 0)
(0.000214378 -0.00243724 0)
(0.000512178 -0.00366549 0)
(0.000881325 -0.00470466 0)
(0.00129454 -0.00558607 0)
(0.00173499 -0.00631025 0)
(0.00218837 -0.00685612 0)
(0.00264114 -0.00718657 0)
(0.00308113 -0.00725298 0)
(0.00349905 -0.00699915 0)
(0.00389071 -0.00636516 0)
(0.00425956 -0.00529146 0)
(0.00461914 -0.00372367 0)
(0.00499465 -0.00161785 0)
(0.0054229 0.00105369 0)
(0.00595041 0.00429701 0)
(0.00662951 0.00809275 0)
(0.00751471 0.0123946 0)
(6.2123e-06 -0.00101678 0)
(4.91007e-05 -0.00262563 0)
(0.000112807 -0.00392721 0)
(0.000189068 -0.00502071 0)
(0.000273098 -0.0059448 0)
(0.000363523 -0.0067027 0)
(0.000460607 -0.0072744 0)
(0.000566093 -0.00762407 0)
(0.000683729 -0.00770597 0)
(0.000820138 -0.00746959 0)
(0.000985888 -0.00686453 0)
(0.00119651 -0.00584509 0)
(0.00147316 -0.00437467 0)
(0.00184258 -0.00242972 0)
(0.00233602 -3.09032e-06 0)
(0.00298704 0.00289365 0)
(0.00383029 0.00623027 0)
(0.00490122 0.0099591 0)
(-1.73093e-05 -0.000978314 0)
(-0.0001641 -0.00253534 0)
(-0.000394294 -0.00379885 0)
(-0.000684155 -0.00486343 0)
(-0.00101052 -0.00576793 0)
(-0.00135659 -0.00651793 0)
(-0.00170625 -0.00709723 0)
(-0.00204188 -0.0074752 0)
(-0.00234388 -0.00761287 0)
(-0.00259055 -0.00746829 0)
(-0.00275817 -0.00700147 0)
(-0.00282129 -0.00617864 0)
(-0.00275324 -0.00497589 0)
(-0.00252711 -0.00338181 0)
(-0.00211706 -0.0013991 0)
(-0.00149969 0.000955008 0)
(-0.00065438 0.00364898 0)
(0.000439132 0.00663909 0)
(-3.31686e-05 -0.000804706 0)
(-0.000322237 -0.00212112 0)
(-0.000777183 -0.00321282 0)
(-0.00135156 -0.00414586 0)
(-0.0020034 -0.00494908 0)
(-0.00270441 -0.00562788 0)
(-0.00342834 -0.00617065 0)
(-0.00414746 -0.00655383 0)
(-0.00483207 -0.00674671 0)
(-0.00545083 -0.00671601 0)
(-0.00597153 -0.00643006 0)
(-0.00636199 -0.00586253 0)
(-0.00659132 -0.00499532 0)
(-0.00663111 -0.00382059 0)
(-0.00645675 -0.0023418 0)
(-0.00604812 -0.00057369 0)
(-0.0053902 0.00145851 0)
(-0.00447097 0.00372018 0)
(-3.93311e-05 -0.000610775 0)
(-0.000394288 -0.00166062 0)
(-0.000959213 -0.00255881 0)
(-0.00167859 -0.00333817 0)
(-0.0025035 -0.00401649 0)
(-0.00340126 -0.00459845 0)
(-0.00434137 -0.00507654 0)
(-0.00529185 -0.0054336 0)
(-0.00621878 -0.00564625 0)
(-0.00708678 -0.0056885 0)
(-0.00785988 -0.00553517 0)
(-0.00850277 -0.00516499 0)
(-0.00898221 -0.00456299 0)
(-0.00926843 -0.00372221 0)
(-0.00933647 -0.00264446 0)
(-0.0091671 -0.00134036 0)
(-0.00874655 0.000171223 0)
(-0.00806486 0.00186456 0)
(-3.82762e-05 -0.000423964 0)
(-0.000403706 -0.00121319 0)
(-0.000997471 -0.00191587 0)
(-0.00176396 -0.00253424 0)
(-0.00265447 -0.00307682 0)
(-0.00363573 -0.00354787 0)
(-0.00467633 -0.00394349 0)
(-0.00574357 -0.00425221 0)
(-0.00680303 -0.0044572 0)
(-0.0078188 -0.00453896 0)
(-0.00875439 -0.00447803 0)
(-0.00957386 -0.00425741 0)
(-0.0102433 -0.00386459 0)
(-0.0107324 -0.00329289 0)
(-0.0110155 -0.00254218 0)
(-0.0110729 -0.00161896 0)
(-0.0108904 -0.000535927 0)
(-0.0104586 0.000688522 0)
(-3.19449e-05 -0.000268159 0)
(-0.000367234 -0.000831954 0)
(-0.000930511 -0.00135735 0)
(-0.00167147 -0.00182452 0)
(-0.00254541 -0.00223611 0)
(-0.00352043 -0.00259635 0)
(-0.00456626 -0.00290416 0)
(-0.00565185 -0.00315261 0)
(-0.00674482 -0.00333026 0)
(-0.00781137 -0.00342312 0)
(-0.00881688 -0.00341671 0)
(-0.00972702 -0.00329792 0)
(-0.010509 -0.00305661 0)
(-0.011133 -0.00268662 0)
(-0.0115734 -0.0021865 0)
(-0.0118099 -0.00155956 0)
(-0.0118276 -0.000813669 0)
(-0.0116168 3.88993e-05 0)
(-2.239e-05 -0.000151698 0)
(-0.000302791 -0.000535416 0)
(-0.000798566 -0.000910466 0)
(-0.00146677 -0.00124549 0)
(-0.00226797 -0.00154065 0)
(-0.0031725 -0.00180022 0)
(-0.00415248 -0.002025 0)
(-0.00518009 -0.00221129 0)
(-0.00622661 -0.00235177 0)
(-0.00726204 -0.00243689 0)
(-0.00825545 -0.00245638 0)
(-0.00917572 -0.00240065 0)
(-0.00999271 -0.00226185 0)
(-0.0106785 -0.00203481 0)
(-0.0112085 -0.00171749 0)
(-0.0115625 -0.00131114 0)
(-0.0117255 -0.000820193 0)
(-0.0116873 -0.000252266 0)
(-1.15288e-05 -7.33195e-05 0)
(-0.000226277 -0.000321281 0)
(-0.000636215 -0.000574834 0)
(-0.00120541 -0.000800858 0)
(-0.0018996 -0.000999236 0)
(-0.00269183 -0.00117409 0)
(-0.00355753 -0.0013271 0)
(-0.00447301 -0.00145665 0)
(-0.00541415 -0.00155834 0)
(-0.00635578 -0.00162602 0)
(-0.00727165 -0.00165285 0)
(-0.00813502 -0.00163218 0)
(-0.00891956 -0.0015584 0)
(-0.00960039 -0.00142752 0)
(-0.0101551 -0.00123752 0)
(-0.0105648 -0.000988551 0)
(-0.0108145 -0.000682824 0)
(-0.0108946 -0.000324655 0)
(-1.06271e-06 -2.67363e-05 0)
(-0.000150376 -0.000176971 0)
(-0.000469758 -0.000336442 0)
(-0.000928812 -0.00047733 0)
(-0.00149806 -0.000600161 0)
(-0.0021538 -0.00070848 0)
(-0.00287547 -0.000804102 0)
(-0.00364398 -0.000886512 0)
(-0.00444022 -0.000953285 0)
(-0.0052442 -0.00100075 0)
(-0.00603489 -0.00102465 0)
(-0.00679055 -0.00102077 0)
(-0.0074894 -0.000985429 0)
(-0.00811047 -0.000915837 0)
(-0.0086345 -0.000810389 0)
(-0.0090447 -0.000668765 0)
(-0.00932745 -0.000491909 0)
(-0.00947373 -0.000281975 0)
(7.4792e-06 -3.7292e-06 0)
(-8.43709e-05 -8.65883e-05 0)
(-0.000317116 -0.000176667 0)
(-0.0006646 -0.000255039 0)
(-0.00110213 -0.000322768 0)
(-0.00161003 -0.000382469 0)
(-0.00217219 -0.000435578 0)
(-0.00277427 -0.000482064 0)
(-0.00340213 -0.000520726 0)
(-0.00404097 -0.00054959 0)
(-0.00467504 -0.000566303 0)
(-0.00528778 -0.000568473 0)
(-0.00586235 -0.000553948 0)
(-0.00638226 -0.000521038 0)
(-0.00683204 -0.000468666 0)
(-0.00719791 -0.000396446 0)
(-0.00746826 -0.000304684 0)
(-0.00763543 -0.000194268 0)
(1.26472e-05 3.99105e-06 0)
(-3.44187e-05 -3.4991e-05 0)
(-0.000188944 -7.75088e-05 0)
(-0.000428914 -0.00011373 0)
(-0.00073507 -0.000144705 0)
(-0.00109259 -0.000171984 0)
(-0.00149006 -0.000196427 0)
(-0.00191775 -0.00021813 0)
(-0.0023662 -0.000236593 0)
(-0.00282547 -0.000250932 0)
(-0.00328485 -0.00026006 0)
(-0.0037329 -0.000262849 0)
(-0.0041578 -0.000258263 0)
(-0.00454779 -0.00024546 0)
(-0.00489163 -0.000223863 0)
(-0.0051791 -0.000193206 0)
(-0.00540135 -0.000153532 0)
(-0.00555248 -0.000105087 0)
(1.2962e-05 3.90236e-06 0)
(-4.03596e-06 -9.63392e-06 0)
(-9.02297e-05 -2.38112e-05 0)
(-0.000229348 -3.55424e-05 0)
(-0.000408736 -4.54355e-05 0)
(-0.000619127 -5.41353e-05 0)
(-0.000853826 -6.19947e-05 0)
(-0.00110734 -6.90811e-05 0)
(-0.00137442 -7.52511e-05 0)
(-0.0016495 -8.02251e-05 0)
(-0.00192651 -8.36507e-05 0)
(-0.00219885 -8.51547e-05 0)
(-0.0024596 -8.4387e-05 0)
(-0.00270175 -8.10549e-05 0)
(-0.00291851 -7.49466e-05 0)
(-0.00310358 -6.59457e-05 0)
(-0.00325134 -5.4025e-05 0)
(-0.00335803 -3.91772e-05 0)
(6.99207e-06 1.42314e-06 0)
(5.41555e-06 -4.87566e-07 0)
(-2.18298e-05 -1.66871e-06 0)
(-6.76289e-05 -2.58449e-06 0)
(-0.000127238 -3.32538e-06 0)
(-0.000197385 -3.97508e-06 0)
(-0.000275866 -4.5736e-06 0)
(-0.000360955 -5.13203e-06 0)
(-0.000451027 -5.64182e-06 0)
(-0.000544341 -6.08219e-06 0)
(-0.000638958 -6.42527e-06 0)
(-0.000732735 -6.64079e-06 0)
(-0.000823377 -6.69916e-06 0)
(-0.00090852 -6.57463e-06 0)
(-0.000985838 -6.24725e-06 0)
(-0.00105314 -5.70733e-06 0)
(-0.00110837 -4.92867e-06 0)
(-0.00115017 -3.89847e-06 0)
(9.97291e-06 -2.32978e-05 5.6444e-24)
(6.60251e-05 -5.20246e-05 -7.45093e-24)
(0.000153553 -6.71698e-05 0)
(0.00025675 -7.20368e-05 0)
(0.000357131 -7.00703e-05 0)
(0.000441906 -6.3617e-05 6.23599e-24)
(0.000502455 -5.44061e-05 0)
(0.000532889 -4.37348e-05 0)
(0.000529319 -3.25185e-05 0)
(0.000489405 -2.13385e-05 0)
(0.000411918 -1.05367e-05 -9.11176e-25)
(0.000296352 -2.73154e-07 0)
(0.000142629 9.42417e-06 0)
(-4.9124e-05 1.86164e-05 0)
(-0.000278735 2.74214e-05 0)
(-0.000546099 3.59881e-05 7.14736e-24)
(-0.000851227 4.4476e-05 0)
(-0.00119427 5.30386e-05 0)
(-0.00157548 6.18116e-05 0)
(-0.0019952 7.09043e-05 0)
(-0.00245374 8.0393e-05 0)
(-0.0029513 9.03176e-05 0)
(-0.00348791 0.000100679 0)
(-0.00406326 0.000111436 2.28559e-23)
(-0.0046766 0.000122511 -2.48094e-23)
(-0.00532666 0.000133785 2.66911e-23)
(-0.00601153 0.000145101 2.84715e-23)
(-0.00672856 0.000156269 0)
(-0.00747429 0.000167067 0)
(-0.00824439 0.000177244 -3.28615e-23)
(-0.00903362 0.000186526 -3.38802e-23)
(-0.00983583 0.000194622 0)
(-0.0106439 0.000201231 0)
(-0.01145 0.000206047 -3.50226e-23)
(-0.0122453 0.000208774 0)
(-0.0130204 0.000209133 0)
(-0.0137652 0.000206871 3.24379e-23)
(-0.0144692 0.000201777 0)
(-0.0151219 0.000193692 2.81873e-23)
(-0.0157124 0.000182517 5.04743e-23)
(-0.0162302 0.000168224 0)
(-0.0166653 0.000150864 0)
(-0.0170082 0.000130567 0)
(-0.0172503 0.000107549 0)
(-0.0173843 8.21239e-05 0)
(-0.0174039 5.46772e-05 -7.52757e-24)
(-0.0173043 2.55467e-05 -2.03945e-23)
(-0.0170825 -4.76112e-06 -3.3881e-23)
(-0.0167373 -3.56839e-05 0)
(-0.0162688 -6.66675e-05 6.20808e-23)
(-0.0156793 -9.7164e-05 0)
(-0.0149725 -0.000126642 -9.07273e-23)
(-0.0141538 -0.000154604 -1.0474e-22)
(-0.0132302 -0.000180603 0)
(-0.0122095 -0.000204257 0)
(-0.0111011 -0.000225255 0)
(-0.00991498 -0.000243367 -1.54196e-22)
(-0.00866167 -0.000258442 0)
(-0.00735219 -0.000270408 0)
(-0.00599773 -0.000279257 0)
(-0.00460947 -0.000285043 0)
(-0.00319845 -0.000287858 0)
(-0.00177551 -0.000287807 0)
(-0.000351246 -0.000284948 0)
(0.0010641 -0.000279314 0)
(0.00246069 -0.000271071 1.84786e-22)
(0.00382862 -0.000260474 0)
(0.0051581 -0.000247686 0)
(0.00643945 -0.0002328 -1.62719e-22)
(0.00766291 -0.000215884 -1.52393e-22)
(0.00881859 -0.000196993 0)
(0.00989642 -0.000176192 1.28042e-22)
(0.0108862 -0.00015357 -1.14332e-22)
(0.0117777 -0.000129256 0)
(0.0125608 -0.000103439 8.47623e-23)
(0.0132258 -7.63801e-05 0)
(0.0137637 -4.84242e-05 0)
(0.0141665 -1.9998e-05 -3.8213e-23)
(0.0144279 8.39229e-06 0)
(0.0145436 3.61566e-05 8.38153e-24)
(0.0145116 6.26236e-05 0)
(0.0143327 8.71981e-05 1.83866e-23)
(0.0140111 0.000109289 3.01294e-23)
(0.013554 0.000128319 4.0572e-23)
(0.0129718 0.000143816 9.92071e-23)
(0.0122785 0.000155443 -1.14308e-22)
(0.0114904 0.000163013 0)
(0.0106263 0.000166514 0)
(0.00970672 0.000166102 0)
(0.00875278 0.000162096 -1.45318e-22)
(0.00778565 0.000154948 -1.4648e-22)
(0.00682556 0.000145212 1.45533e-22)
(0.00589111 0.000133495 0)
(0.00499852 0.00012042 -1.38657e-22)
(0.00416125 0.000106583 -1.33415e-22)
(0.00338965 9.25209e-05 -1.27411e-22)
(0.00269092 7.86932e-05 0)
(0.00206911 6.54795e-05 0)
(0.00152533 5.31858e-05 0)
(0.00105795 4.20577e-05 -1.01183e-22)
(0.000662901 3.22914e-05 0)
(0.000334012 2.40366e-05 0)
(6.34126e-05 1.73881e-05 8.44614e-23)
(-0.000157928 1.23705e-05 0)
(-0.000339579 8.9207e-06 0)
(-0.00049096 6.88239e-06 7.28436e-23)
(-0.000620679 6.01747e-06 0)
(-0.000735991 6.03052e-06 0)
(-0.000842434 6.60238e-06 -6.59951e-23)
(-0.00094369 7.42745e-06 -6.4432e-23)
(-0.00104165 8.24418e-06 0)
(-0.00113668 8.85396e-06 6.18627e-23)
(-0.00122795 9.12775e-06 0)
(-0.00131388 9.00224e-06 -5.9554e-23)
(-0.00139248 8.46935e-06 0)
(-0.00146168 7.56276e-06 -5.71177e-23)
(-0.00151962 6.34427e-06 -5.57924e-23)
(-0.0015648 4.89182e-06 0)
(-0.00159618 3.28987e-06 0)
(-0.00161327 1.62504e-06 0)
(-0.00161609 -1.61404e-08 0)
(-0.00160518 -1.58825e-06 0)
(-0.0015815 -3.021e-06 0)
(-0.00154637 -4.26961e-06 0)
(-0.0015014 -5.30546e-06 -4.35935e-23)
(-0.00144836 -6.11251e-06 4.21647e-23)
(-0.00138912 -6.68691e-06 0)
(-0.00132555 -7.03557e-06 0)
(-0.00125946 -7.17431e-06 0)
(-0.00119251 -7.12565e-06 0)
(-0.00112622 -6.91662e-06 7.28983e-23)
(-0.00106187 -6.57665e-06 0)
(-0.00100052 -6.13571e-06 -6.97505e-23)
(-0.000943022 -5.62273e-06 6.84452e-23)
(-0.000889977 -5.06437e-06 0)
(-0.000841792 -4.48426e-06 0)
(-0.000798684 -3.90242e-06 0)
(-0.000760705 -3.33517e-06 -6.45591e-23)
(-0.000727775 -2.79509e-06 -6.38167e-23)
(-0.000699703 -2.29137e-06 0)
(-0.000676218 -1.8301e-06 -6.24717e-23)
(-0.000656987 -1.41473e-06 -6.18371e-23)
(-0.000641644 -1.04655e-06 6.12096e-23)
(-0.000629798 -7.25122e-07 0)
(-0.000621057 -4.48715e-07 0)
(-0.000615031 -2.14638e-07 5.92699e-23)
(-0.000611349 -1.94842e-08 0)
(-0.000609658 1.40002e-07 0)
(-0.000609633 2.63298e-07 0)
(-0.000610977 3.58716e-07 0)
(-0.00061342 4.34232e-07 -5.54979e-23)
(-0.00061672 4.88177e-07 -5.46402e-23)
(-0.000620667 5.23458e-07 0)
(-0.000625079 5.43455e-07 -5.28221e-23)
(-0.000629797 5.50986e-07 0)
(-0.00063469 5.48557e-07 0)
(-0.000639648 5.38442e-07 -4.98604e-23)
(-0.000644585 5.22703e-07 0)
(-0.000649433 5.03215e-07 -4.77526e-23)
(-0.000654146 4.81661e-07 0)
(-0.000658692 4.59527e-07 0)
(-0.000663056 4.38062e-07 -4.44327e-23)
(-0.000667234 4.18217e-07 0)
(-0.00067123 4.00557e-07 -4.21342e-23)
(-0.000675051 3.85152e-07 0)
(-0.000678701 3.71436e-07 0)
(-0.00068217 3.58062e-07 0)
(-0.000685424 3.42749e-07 3.73587e-23)
(-0.000688398 3.22013e-07 0)
(-0.000690973 2.89908e-07 -3.48724e-23)
(-0.000692984 2.40337e-07 0)
(-0.000694165 1.92874e-07 0)
(-0.000694163 1.08034e-07 0)
(-0.000692528 -2.25953e-08 0)
(-0.000688653 -2.04551e-07 0)
(-0.000681725 -4.57796e-07 0)
(-0.000670529 -8.28085e-07 0)
(-0.000652714 -1.76939e-06 4.82209e-23)
(-0.000630104 -1.74867e-06 0)
(-0.000556989 -1.1252e-05 0)
(1.43406e-05 -0.000127301 -1.89735e-23)
(0.000102249 -0.000285311 2.53108e-23)
(0.00022207 -0.000360514 0)
(0.000346485 -0.000368388 -1.67566e-23)
(0.000445679 -0.000324482 0)
(0.000497521 -0.000242635 -6.69376e-24)
(0.000485734 -0.000134349 1.32224e-23)
(0.000398198 -8.77185e-06 1.14368e-23)
(0.000226089 0.000127139 0)
(-3.67986e-05 0.000268316 7.08332e-24)
(-0.000394654 0.000411256 9.81312e-25)
(-0.000850179 0.000553722 0)
(-0.00140505 0.000694454 0)
(-0.0020603 0.000832908 0)
(-0.00281656 0.000969026 0)
(-0.00367422 0.00110304 -7.67907e-24)
(-0.00463355 0.0012353 0)
(-0.0056947 0.00136614 1.82058e-23)
(-0.0068576 0.00149575 0)
(-0.00812187 0.00162412 0)
(-0.00948667 0.00175093 -2.99248e-23)
(-0.0109504 0.00187556 0)
(-0.0125107 0.00199704 3.80212e-23)
(-0.0141639 0.00211404 -2.43743e-23)
(-0.0159049 0.00222493 2.64219e-23)
(-0.0177273 0.00232778 -2.83858e-23)
(-0.0196226 0.00242038 -3.02351e-23)
(-0.0215805 0.00250037 0)
(-0.0235887 0.00256523 0)
(-0.0256329 0.00261239 3.47405e-23)
(-0.0276965 0.00263932 -2.95084e-23)
(-0.0297611 0.00264358 0)
(-0.0318066 0.00262291 0)
(-0.033811 0.00257537 3.68237e-23)
(-0.0357512 0.00249933 0)
(-0.037603 0.00239365 0)
(-0.0393418 0.00225768 -3.40093e-23)
(-0.0409427 0.00209135 0)
(-0.0423812 0.00189519 2.76399e-23)
(-0.0436335 0.00167039 -5.2864e-23)
(-0.0446775 0.0014188 0)
(-0.0454924 0.00114287 0)
(-0.0460599 0.000845653 -5.70628e-23)
(-0.0463644 0.00053073 -3.70941e-23)
(-0.0463932 0.000202138 -1.50137e-23)
(-0.0461368 -0.000135643 -1.09186e-24)
(-0.0455894 -0.000478086 2.14785e-23)
(-0.0447487 -0.000820347 9.7688e-23)
(-0.0436163 -0.0011576 -9.03328e-23)
(-0.0421971 -0.00148518 -6.57299e-23)
(-0.0404998 -0.0017987 0)
(-0.0385362 -0.00209413 9.6538e-23)
(-0.0363208 -0.00236794 -9.69804e-23)
(-0.0338711 -0.00261714 0)
(-0.0312067 -0.00283935 0)
(-0.0283489 -0.00303283 0)
(-0.0253202 -0.00319646 1.66846e-22)
(-0.0221443 -0.00332974 0)
(-0.0188453 -0.00343271 -3.58181e-22)
(-0.0154473 -0.00350589 0)
(-0.0119743 -0.00355017 -3.88415e-22)
(-0.00844992 -0.00356668 0)
(-0.00489722 -0.00355667 4.04929e-22)
(-0.00133875 -0.00352132 0)
(0.00220333 -0.0034617 -4.03208e-22)
(0.00570779 -0.00337887 1.87704e-22)
(0.00915305 -0.00327388 0)
(0.0125177 -0.00314751 3.63019e-22)
(0.0157803 -0.0030002 1.79641e-22)
(0.0189189 -0.00283219 1.67854e-22)
(0.0219108 -0.00264356 0)
(0.0247327 -0.00243441 1.26433e-22)
(0.0273603 -0.00220496 1.2522e-22)
(0.0297689 -0.00195572 0)
(0.0319331 -0.00168764 -9.25998e-23)
(0.0338279 -0.00140231 1.41233e-22)
(0.0354287 -0.00110202 0)
(0.0367128 -0.000789923 4.16827e-23)
(0.0376598 -0.000470029 0)
(0.0382531 -0.00014725 -2.25064e-23)
(0.0384807 0.000172686 0)
(0.0383367 0.000483695 -6.22547e-23)
(0.0378221 0.000779099 -3.29515e-23)
(0.0369457 0.00105225 4.3351e-23)
(0.0357245 0.00129677 1.03664e-22)
(0.034184 0.00150695 -1.1761e-22)
(0.032358 0.00167806 0)
(0.0302876 0.00180675 0)
(0.0280205 0.00189123 0)
(0.0256084 0.00193147 4.67469e-22)
(0.023106 0.00192915 1.63235e-22)
(0.020568 0.0018876 -1.62729e-22)
(0.0180471 0.00181151 0)
(0.015592 0.0017066 -1.37138e-22)
(0.0132453 0.00157922 1.50715e-22)
(0.0110423 0.00143595 1.44404e-22)
(0.00901034 0.00128328 0)
(0.00716788 0.00112729 0)
(0.00552491 0.000973567 0)
(0.00408322 0.000827 1.15987e-22)
(0.00283703 0.000691761 0)
(0.00177397 0.000571168 -1.96937e-22)
(0.000876314 0.000467558 -2.84421e-22)
(0.000122469 0.000382142 1.78133e-22)
(-0.000511239 0.000314905 0)
(-0.00104871 0.000264624 7.93496e-23)
(-0.00151225 0.000229053 0)
(-0.00192114 0.000205225 1.53403e-22)
(-0.0022906 0.000189822 -7.31737e-23)
(-0.00263138 0.00017956 -7.17591e-23)
(-0.00294982 0.00017153 0)
(-0.00324839 0.000163412 -2.12867e-22)
(-0.00352654 0.000153583 1.38801e-22)
(-0.00378159 0.000141105 6.91026e-23)
(-0.00400973 0.000125651 0)
(-0.00420683 0.000107373 6.63471e-23)
(-0.00436906 8.67709e-05 1.93602e-22)
(-0.00449341 6.45598e-05 0)
(-0.00457798 4.15627e-05 1.2276e-22)
(-0.00462212 1.86225e-05 1.1953e-22)
(-0.00462649 -3.46046e-06 1.16188e-22)
(-0.00459292 -2.40142e-05 0)
(-0.00452434 -4.24563e-05 0)
(-0.00442454 -5.83601e-05 0)
(-0.00429798 -7.145e-05 -5.17293e-23)
(-0.00414954 -8.15954e-05 -4.9329e-23)
(-0.00398429 -8.87988e-05 0)
(-0.00380729 -9.31789e-05 -9.37227e-23)
(-0.0036234 -9.49487e-05 -9.11281e-23)
(-0.00343714 -9.43922e-05 0)
(-0.00325254 -9.18408e-05 -8.56479e-23)
(-0.0030731 -8.76501e-05 -1.69344e-22)
(-0.00290172 -8.21805e-05 8.20886e-23)
(-0.00274068 -7.57799e-05 8.22097e-23)
(-0.00259168 -6.87705e-05 0)
(-0.00245586 -6.14399e-05 0)
(-0.00233386 -5.40351e-05 0)
(-0.00222589 -4.67602e-05 7.62863e-23)
(-0.00213178 -3.97766e-05 -7.63349e-23)
(-0.00205106 -3.32052e-05 -1.50148e-22)
(-0.00198305 -2.71305e-05 7.39863e-23)
(-0.00192686 -2.16046e-05 -7.37849e-23)
(-0.00188154 -1.66532e-05 -7.25959e-23)
(-0.00184605 -1.22798e-05 0)
(-0.00181932 -8.4709e-06 0)
(-0.0018003 -5.20057e-06 7.05959e-23)
(-0.00178797 -2.43389e-06 0)
(-0.00178137 -1.30889e-07 0)
(-0.0017796 1.7477e-06 -1.3602e-22)
(-0.00178182 3.2501e-06 0)
(-0.00178728 4.42704e-06 -6.61212e-23)
(-0.00179532 5.31451e-06 6.51975e-23)
(-0.00180532 5.95252e-06 0)
(-0.00181678 6.37909e-06 -6.30054e-23)
(-0.00182924 6.62927e-06 0)
(-0.00184232 6.73524e-06 0)
(-0.0018557 6.72645e-06 5.96864e-23)
(-0.00186913 6.62973e-06 -1.16836e-22)
(-0.00188241 6.46929e-06 5.72369e-23)
(-0.00189539 6.26665e-06 0)
(-0.00190796 6.04043e-06 0)
(-0.00192008 5.80574e-06 -5.32546e-23)
(-0.0019317 5.5735e-06 0)
(-0.00194282 5.34929e-06 -5.05683e-23)
(-0.00195343 5.13215e-06 0)
(-0.00196351 4.91307e-06 0)
(-0.00197301 4.67356e-06 0)
(-0.0019818 4.38431e-06 -4.50396e-23)
(-0.00198967 4.00401e-06 0)
(-0.00199626 3.47748e-06 4.20967e-23)
(-0.00200103 2.73534e-06 0)
(-0.00200327 1.74201e-06 0)
(-0.00200197 3.54093e-07 -7.497e-23)
(-0.00199584 -1.53834e-06 7.18055e-23)
(-0.0019832 -4.07923e-06 0)
(-0.00196185 -7.50763e-06 0)
(-0.00192874 -1.22996e-05 0)
(-0.00187872 -1.96825e-05 -1.7625e-22)
(-0.00181379 -3.12804e-05 0)
(-0.00166457 -5.97698e-05 1.04049e-22)
(1.12876e-05 -0.000232121 -2.64512e-24)
(6.78037e-05 -0.00048822 -3.78598e-23)
(0.000121532 -0.000573543 0)
(0.000142977 -0.000523614 3.62276e-23)
(0.000102343 -0.000369266 0)
(-2.31314e-05 -0.00013672 0)
(-0.000250923 0.000152259 2.57909e-24)
(-0.000594619 0.000480097 -1.14272e-23)
(-0.00106471 0.000833019 -1.21705e-23)
(-0.00166912 0.00120062 -7.05863e-24)
(-0.00241373 0.00157536 0)
(-0.00330282 0.00195205 0)
(-0.00433949 0.00232735 2.59264e-24)
(-0.00552588 0.00269927 -4.5509e-25)
(-0.00686343 0.00306679 6.41044e-24)
(-0.00835292 0.0034294 0)
(-0.00999454 0.0037868 1.92243e-23)
(-0.0117878 0.00413858 -1.79708e-23)
(-0.0137314 0.00448401 0)
(-0.0158229 0.00482183 4.04893e-23)
(-0.0180588 0.00515011 2.93984e-23)
(-0.0204339 0.00546622 -5.57393e-23)
(-0.0229413 0.00576674 -3.72249e-23)
(-0.0255719 0.00604753 0)
(-0.0283143 0.00630379 7.9285e-23)
(-0.0311546 0.00653016 8.70182e-23)
(-0.034076 0.00672085 0)
(-0.0370592 0.00686983 1.01706e-22)
(-0.040082 0.00697102 0)
(-0.0431194 0.00701846 1.145e-22)
(-0.0461442 0.00700657 6.30663e-23)
(-0.0491267 0.00693034 0)
(-0.0520357 0.00678551 0)
(-0.0548383 0.0065688 0)
(-0.0575011 0.00627809 0)
(-0.0599901 0.00591251 0)
(-0.0622719 0.00547261 0)
(-0.0643139 0.00496036 1.21203e-22)
(-0.0660852 0.00437926 -1.6924e-22)
(-0.0675569 0.00373424 0)
(-0.0687031 0.00303162 0)
(-0.069501 0.00227902 0)
(-0.0699315 0.00148512 -9.67975e-24)
(-0.0699795 0.000659537 3.57332e-23)
(-0.0696341 -0.000187341 4.06994e-23)
(-0.0688893 -0.00104466 4.70907e-24)
(-0.0677435 -0.0019013 2.00578e-23)
(-0.0661994 -0.00274631 -5.97517e-23)
(-0.0642642 -0.00356906 1.4725e-23)
(-0.0619493 -0.00435952 -1.00259e-22)
(-0.05927 -0.00510852 0)
(-0.0562452 -0.00580786 -1.57382e-22)
(-0.0528967 -0.00645057 1.63747e-23)
(-0.0492492 -0.00703096 0)
(-0.0453292 -0.00754472 0)
(-0.0411652 -0.00798891 2.67132e-22)
(-0.0367867 -0.00836194 0)
(-0.0322238 -0.0086635 0)
(-0.0275067 -0.00889435 -3.15762e-22)
(-0.0226657 -0.00905621 -7.0065e-22)
(-0.0177303 -0.00915149 3.82056e-22)
(-0.0127296 -0.00918304 0)
(-0.00769166 -0.00915392 -4.00165e-22)
(-0.00264392 -0.00906708 0)
(0.00238653 -0.00892518 -3.64989e-22)
(0.00737421 -0.0087304 -3.89497e-22)
(0.0122925 -0.00848448 7.17035e-22)
(0.0171151 -0.00818864 3.2514e-22)
(0.0218151 -0.00784342 0)
(0.0263647 -0.00744882 -5.97879e-22)
(0.0307349 -0.00700445 0)
(0.0348952 -0.00650981 -7.5487e-22)
(0.0388134 -0.00596457 -4.36049e-22)
(0.0424556 -0.00536898 -3.75885e-22)
(0.0457866 -0.00472418 3.13951e-22)
(0.0487703 -0.00403263 -3.8866e-22)
(0.0513704 -0.00329845 0)