/*--------------------------------*- C++ -*----------------------------------*\
  =========                 |
  \\      /  F ield         | OpenFOAM: The Open Source CFD Toolbox
   \\    /   O peration     | Website:  https://openfoam.org
    \\  /    A nd           | Version:  8
     \\/     M anipulation  |
\*---------------------------------------------------------------------------*/
FoamFile
{
    version     2.0;
    format      ascii;
    class       volScalarField;
    location    "0.72";
    object      p;
}
// * * * * * * * * * * * * * * * * * * * * * * * * * * * * * * * * * * * * * //

dimensions      [0 2 -2 0 0 0 0];

internalField   nonuniform List<scalar> 
12225
(
-0.00372489
-0.00369348
-0.003663
-0.00363995
-0.00363006
-0.00363602
-0.00366031
-0.00370537
-0.00377401
-0.0038699
-0.00399825
-0.00416716
-0.00439021
-0.00469182
-0.00511767
-0.00575526
-0.00685073
-0.00942507
-0.00372466
-0.00369661
-0.00366932
-0.00364917
-0.00364198
-0.00365052
-0.00367736
-0.00372494
-0.00379613
-0.00389457
-0.00402541
-0.00419654
-0.00442082
-0.00472032
-0.00513332
-0.005727
-0.00663266
-0.00837052
-0.00372567
-0.00370067
-0.0036769
-0.00366009
-0.00365601
-0.00366752
-0.00369723
-0.00374761
-0.00382149
-0.00392242
-0.00405534
-0.00422756
-0.00445048
-0.00474233
-0.00513112
-0.00565712
-0.00634347
-0.00743729
-0.00372818
-0.00370519
-0.00368439
-0.0036706
-0.00366939
-0.00368361
-0.00371587
-0.0037686
-0.00384453
-0.00394699
-0.00408045
-0.00425123
-0.00446854
-0.00474563
-0.00509945
-0.00554664
-0.00605886
-0.00674762
-0.00373202
-0.00371016
-0.00369175
-0.00368066
-0.00368203
-0.00369866
-0.0037331
-0.00378767
-0.00386494
-0.00396786
-0.00410023
-0.00426701
-0.00447473
-0.00473137
-0.00504386
-0.00541201
-0.00579104
-0.00622194
-0.00373697
-0.00371555
-0.00369903
-0.00369034
-0.00369403
-0.00371279
-0.00374904
-0.00380496
-0.00388284
-0.00398518
-0.00411488
-0.00427535
-0.00447028
-0.00470269
-0.00497165
-0.00526632
-0.00554127
-0.00580285
-0.00374274
-0.00372125
-0.00370613
-0.00369953
-0.00370525
-0.00372582
-0.00376347
-0.0038202
-0.00389795
-0.00399863
-0.00412418
-0.00427635
-0.00445612
-0.00466235
-0.00488863
-0.0051187
-0.00531318
-0.00546566
-0.00374899
-0.00372703
-0.00371287
-0.00370802
-0.00371545
-0.00373747
-0.00377608
-0.00383304
-0.00390987
-0.00400788
-0.00412796
-0.00427026
-0.0044334
-0.00461312
-0.00479977
-0.00497558
-0.00510973
-0.00519442
-0.00375526
-0.00373261
-0.00371902
-0.00371559
-0.00372439
-0.00374747
-0.00378657
-0.00384315
-0.00391832
-0.00401272
-0.00412624
-0.00425762
-0.0044036
-0.00455784
-0.00470933
-0.00484136
-0.00493165
-0.00497545
-0.00376103
-0.00373761
-0.00372431
-0.00372197
-0.0037318
-0.00375553
-0.00379464
-0.00385027
-0.00392308
-0.00401308
-0.00411928
-0.00423922
-0.00436833
-0.00449917
-0.0046207
-0.00471863
-0.00477793
-0.00479766
-0.00376569
-0.00374157
-0.0037284
-0.00372689
-0.0037374
-0.00376139
-0.00380003
-0.00385415
-0.003924
-0.00400902
-0.00410746
-0.00421598
-0.00432921
-0.00443935
-0.00453618
-0.00460825
-0.00464613
-0.00465203
-0.00376837
-0.00374378
-0.00373069
-0.00372972
-0.00374058
-0.00376443
-0.00380223
-0.00385452
-0.00392122
-0.00400132
-0.00409256
-0.00419106
-0.00429108
-0.00438497
-0.00446357
-0.00451783
-0.0045419
-0.00454018
-0.00376888
-0.00374465
-0.00373164
-0.0037311
-0.00374213
-0.0037656
-0.00380224
-0.00385236
-0.00391558
-0.00399054
-0.0040746
-0.00416359
-0.00425172
-0.00433182
-0.00439598
-0.00443724
-0.00445228
-0.0044455
-0.00376616
-0.00374321
-0.00373053
-0.00373038
-0.00374139
-0.0037641
-0.00379902
-0.00384625
-0.00390515
-0.00397408
-0.00405017
-0.00412916
-0.00420547
-0.00427265
-0.00432415
-0.00435487
-0.00436315
-0.00435273
-0.003758
-0.00373748
-0.00372583
-0.00372612
-0.00373687
-0.00375831
-0.0037908
-0.00383427
-0.00388792
-0.00394997
-0.00401748
-0.00408633
-0.00415138
-0.004207
-0.00424789
-0.00427032
-0.00427335
-0.00425978
-0.00374128
-0.0037248
-0.00371538
-0.00371636
-0.00372658
-0.00374612
-0.00377528
-0.00381393
-0.00386125
-0.00391549
-0.00397385
-0.00403252
-0.00408695
-0.00413231
-0.00416423
-0.00417976
-0.00417796
-0.00416043
-0.00371227
-0.00370196
-0.00369649
-0.00369867
-0.00370806
-0.00372491
-0.00374957
-0.00378202
-0.00382154
-0.00386662
-0.00391477
-0.00396266
-0.00400632
-0.00404158
-0.0040647
-0.00407298
-0.00406499
-0.0040411
-0.00366791
-0.00366608
-0.00366647
-0.00367038
-0.00367847
-0.0036915
-0.00371002
-0.00373422
-0.00376367
-0.00379718
-0.00383272
-0.00386748
-0.00389807
-0.00392087
-0.00393247
-0.0039301
-0.00391176
-0.0038768
-0.00360958
-0.00361775
-0.00362481
-0.00363007
-0.00363548
-0.00364246
-0.00365191
-0.00366428
-0.00367952
-0.0036969
-0.00371496
-0.00373153
-0.00374381
-0.00374869
-0.00374307
-0.00372402
-0.0036888
-0.00363597
-0.00356564
-0.00358167
-0.00359357
-0.00359904
-0.00360089
-0.00360081
-0.00359972
-0.00359811
-0.0035961
-0.00359334
-0.00358885
-0.00358114
-0.0035682
-0.0035477
-0.0035173
-0.00347469
-0.00341737
-0.00334335
-0.00354395
-0.00356391
-0.00357799
-0.00358322
-0.00358266
-0.00357783
-0.00356942
-0.00355779
-0.00354303
-0.00352485
-0.00350258
-0.00347509
-0.00344093
-0.0033984
-0.00334577
-0.00328133
-0.0032031
-0.00310944
-0.00353741
-0.00355875
-0.00357355
-0.00357869
-0.00357691
-0.00356922
-0.00355593
-0.00353717
-0.00351281
-0.00348254
-0.00344576
-0.0034016
-0.00334901
-0.00328679
-0.00321376
-0.00312884
-0.0030307
-0.00291812
-0.00354089
-0.00356194
-0.00357676
-0.00358234
-0.0035806
-0.00357191
-0.00355616
-0.00353316
-0.00350257
-0.00346392
-0.00341658
-0.00335981
-0.0032928
-0.0032147
-0.00312479
-0.00302249
-0.00290716
-0.00277816
-0.00354967
-0.00356961
-0.00358441
-0.00359114
-0.0035906
-0.00358247
-0.00356628
-0.00354153
-0.00350764
-0.00346395
-0.00340976
-0.00334432
-0.00326694
-0.003177
-0.00307405
-0.0029579
-0.00282847
-0.00268575
-0.00356014
-0.00357887
-0.00359411
-0.00360272
-0.00360428
-0.00359789
-0.00358276
-0.00355813
-0.00352321
-0.00347716
-0.00341914
-0.00334835
-0.0032641
-0.00316588
-0.00305341
-0.00292673
-0.00278617
-0.00263229
-0.00356992
-0.00358791
-0.00360431
-0.00361545
-0.00361974
-0.00361585
-0.00360277
-0.00357955
-0.00354521
-0.00349875
-0.00343918
-0.00336558
-0.00327721
-0.00317358
-0.00305448
-0.00292006
-0.00277091
-0.00260805
-0.00357767
-0.00359577
-0.00361417
-0.00362835
-0.00363576
-0.00363483
-0.0036244
-0.0036034
-0.00357071
-0.00352517
-0.00346565
-0.00339109
-0.00330065
-0.00319378
-0.00307027
-0.00293031
-0.00277458
-0.00260445
-0.00358274
-0.00360213
-0.00362344
-0.00364106
-0.00365185
-0.00365413
-0.00364671
-0.00362845
-0.00359814
-0.00355446
-0.00349613
-0.00342195
-0.00333094
-0.00322244
-0.00309617
-0.00295232
-0.00279155
-0.00261536
-0.00358498
-0.00360702
-0.00363201
-0.00365334
-0.00366762
-0.00367323
-0.00366901
-0.00365381
-0.00362633
-0.00358515
-0.00352883
-0.00345599
-0.00336551
-0.00325657
-0.00312879
-0.00298228
-0.00281765
-0.00263642
-0.00358508
-0.00361028
-0.00363863
-0.00366306
-0.0036802
-0.00368852
-0.00368696
-0.00367435
-0.00364936
-0.00361047
-0.00355611
-0.00348477
-0.0033952
-0.00328643
-0.00315799
-0.00300988
-0.00284266
-0.00265783
0.000434352
0.00045034
0.000454681
0.000437039
0.000396483
0.000333893
0.000250407
0.000147442
2.66021e-05
-0.000110515
-0.000262423
-0.00042787
-0.000605828
-0.0007955
-0.000996279
-0.00120769
-0.00142933
-0.00166074
-0.00190135
-0.00215039
-0.00240675
-0.00266896
-0.00293509
-0.00320266
-0.00346867
-0.00372947
-0.00398082
-0.00421786
-0.00443515
-0.0046267
-0.00478604
-0.00490637
-0.00498063
-0.00500174
-0.00496271
-0.00485693
-0.00467835
-0.00442176
-0.00408303
-0.00365931
-0.00314929
-0.00255334
-0.00187368
-0.00111444
-0.000281644
0.000617018
0.00157156
0.00257062
0.00360138
0.00464985
0.00570118
0.00674003
0.00775092
0.00871857
0.00962819
0.0104658
0.0112184
0.0118744
0.0124232
0.0128561
0.0131656
0.0133459
0.0133927
0.0133034
0.013077
0.0127141
0.0122172
0.0115908
0.0108412
0.00997714
0.00900936
0.00795106
0.00681782
0.00562744
0.00439984
0.00315663
0.00192061
0.000715039
-0.000437319
-0.0015145
-0.00249721
-0.0033689
-0.00411683
-0.00473286
-0.00521374
-0.00556121
-0.00578176
-0.005886
-0.00588787
-0.00580356
-0.00565039
-0.00544571
-0.00520596
-0.00494595
-0.00467838
-0.00441366
-0.00415995
-0.00392339
-0.00370837
-0.00351783
-0.00335342
-0.0032156
-0.00310374
-0.00301618
-0.00295031
-0.00290284
-0.00287007
-0.00284816
-0.00283347
-0.0028227
-0.00281307
-0.00280233
-0.0027888
-0.00277129
-0.00274908
-0.00272183
-0.00268954
-0.00265248
-0.00261114
-0.00256619
-0.0025184
-0.00246856
-0.00241758
-0.00236624
-0.00231533
-0.00226552
-0.00221738
-0.00217138
-0.00212786
-0.00208706
-0.00204908
-0.00201398
-0.00198167
-0.00195206
-0.00192496
-0.00190017
-0.00187745
-0.00185655
-0.00183721
-0.00181919
-0.00180224
-0.00178615
-0.00177069
-0.00175569
-0.00174095
-0.00172634
-0.00171171
-0.00169696
-0.00168197
-0.00166667
-0.00165098
-0.00163485
-0.00161824
-0.0016011
-0.00158341
-0.00156517
-0.00154635
-0.00152695
-0.00150697
-0.00148642
-0.00146529
-0.00144359
-0.00142133
-0.00139847
-0.00137502
-0.00135094
-0.00132616
-0.00130063
-0.00127422
-0.00124681
-0.00121826
-0.00118839
-0.00115702
-0.00112406
-0.0010894
-0.00105305
-0.00101515
-0.000976453
-0.000939808
-0.000890115
0.000443282
0.000459601
0.000463818
0.000446792
0.000409203
0.000352623
0.000278224
0.000187147
8.06022e-05
-4.02198e-05
-0.000174266
-0.000320625
-0.000478583
-0.00064761
-0.000827324
-0.00101744
-0.00121772
-0.00142787
-0.00164753
-0.00187609
-0.00211272
-0.0023562
-0.00260491
-0.00285676
-0.00310911
-0.00335876
-0.0036019
-0.00383409
-0.0040503
-0.0042449
-0.00441174
-0.00454421
-0.00463539
-0.00467818
-0.00466548
-0.00459044
-0.00444663
-0.00422837
-0.00393094
-0.00355085
-0.00308608
-0.0025363
-0.00190301
-0.00118966
-0.000401508
0.00045409
0.001368
0.00232913
0.00332481
0.00434123
0.00536364
0.00637672
0.00736495
0.00831295
0.00920581
0.0100294
0.0107706
0.0114176
0.0119598
0.0123882
0.0126954
0.0128754
0.0129238
0.0128377
0.0126161
0.0122601
0.0117723
0.0111574
0.0104218
0.00957446
0.0086263
0.00759078
0.00648367
0.00532302
0.00412888
0.00292293
0.00172791
0.000566863
-0.000537636
-0.0015641
-0.0024947
-0.00331409
-0.00401091
-0.00457856
-0.00501546
-0.00532494
-0.00551487
-0.0055969
-0.00558554
-0.00549702
-0.00534818
-0.00515539
-0.00493376
-0.00469652
-0.00445473
-0.00421721
-0.00399071
-0.00378017
-0.00358908
-0.00341971
-0.00327335
-0.00315032
-0.00305009
-0.00297125
-0.00291161
-0.00286839
-0.0028384
-0.00281832
-0.00280496
-0.00279537
-0.00278703
-0.00277786
-0.00276623
-0.00275098
-0.00273132
-0.00270686
-0.00267749
-0.0026434
-0.002605
-0.00256285
-0.00251766
-0.00247021
-0.0024213
-0.00237173
-0.00232227
-0.00227359
-0.00222629
-0.00218084
-0.00213761
-0.00209688
-0.00205879
-0.0020234
-0.00199069
-0.00196058
-0.00193291
-0.00190751
-0.00188415
-0.0018626
-0.00184263
-0.001824
-0.00180647
-0.00178983
-0.00177386
-0.00175839
-0.00174322
-0.00172822
-0.00171325
-0.00169819
-0.00168293
-0.00166739
-0.0016515
-0.00163519
-0.00161843
-0.00160116
-0.00158338
-0.00156504
-0.00154615
-0.00152669
-0.00150667
-0.00148607
-0.00146491
-0.00144318
-0.00142088
-0.001398
-0.00137453
-0.00135042
-0.00132563
-0.00130009
-0.00127368
-0.00124631
-0.00121783
-0.00118809
-0.00115698
-0.00112437
-0.00109021
-0.00105456
-0.00101761
-0.000980235
-0.000945146
-0.000897641
0.00055098
0.000559655
0.000556072
0.000533318
0.000492851
0.00043652
0.000365515
0.00028082
0.000183373
7.40358e-05
-4.64931e-05
-0.000177701
-0.000319269
-0.000471056
-0.000633068
-0.000805409
-0.000988223
-0.00118163
-0.00138563
-0.00160007
-0.00182451
-0.0020582
-0.00229995
-0.00254812
-0.00280049
-0.00305425
-0.00330592
-0.00355132
-0.00378556
-0.00400304
-0.00419749
-0.00436205
-0.00448938
-0.00457185
-0.00460169
-0.00457127
-0.00447335
-0.00430138
-0.00404978
-0.00371427
-0.00329209
-0.00278234
-0.00218604
-0.00150611
-0.000747451
8.24962e-05
0.000974267
0.00191657
0.00289652
0.00389994
0.0049117
0.00591611
0.00689725
0.00783941
0.00872741
0.0095469
0.0102846
0.0109287
0.0114686
0.0118953
0.0122015
0.0123815
0.0124307
0.0123466
0.0121281
0.0117761
0.0112937
0.0106853
0.00995751
0.00911917
0.00818142
0.00715789
0.00606461
0.00492001
0.00374459
0.00256057
0.00139124
0.000260278
-0.000809194
-0.00179638
-0.00268195
-0.00345159
-0.00409506
-0.00460704
-0.00498765
-0.00524232
-0.00538121
-0.00541823
-0.00536985
-0.00525374
-0.0050875
-0.00488753
-0.0046682
-0.0044414
-0.00421642
-0.00400015
-0.00379738
-0.00361133
-0.00344405
-0.00329673
-0.00316994
-0.00306369
-0.00297733
-0.0029096
-0.00285865
-0.00282207
-0.00279713
-0.00278097
-0.00277077
-0.00276395
-0.00275823
-0.00275171
-0.00274285
-0.00273053
-0.00271394
-0.00269263
-0.00266644
-0.00263547
-0.00260006
-0.00256071
-0.00251808
-0.00247291
-0.00242597
-0.00237807
-0.00232995
-0.0022823
-0.00223574
-0.00219077
-0.00214778
-0.00210707
-0.00206882
-0.00203314
-0.00200001
-0.00196939
-0.00194116
-0.00191514
-0.00189115
-0.00186896
-0.00184836
-0.00182911
-0.00181099
-0.00179379
-0.0017773
-0.00176134
-0.00174574
-0.00173034
-0.001715
-0.00169961
-0.00168407
-0.00166828
-0.00165216
-0.00163566
-0.00161873
-0.00160133
-0.00158342
-0.00156499
-0.00154602
-0.00152649
-0.00150641
-0.00148577
-0.00146458
-0.00144282
-0.00142049
-0.00139759
-0.00137409
-0.00134996
-0.00132516
-0.00129961
-0.00127323
-0.00124591
-0.00121753
-0.00118798
-0.00115715
-0.00112494
-0.00109135
-0.00105648
-0.00102054
-0.000984438
-0.000951137
-0.000904925
0.000762688
0.000754105
0.000733313
0.000697808
0.000648636
0.000587033
0.000513909
0.000430009
0.000335976
0.000232278
0.00011918
-3.27377e-06
-0.000135258
-0.000277154
-0.000429519
-0.00059303
-0.000768428
-0.000956439
-0.00115769
-0.00137263
-0.00160143
-0.00184389
-0.00209931
-0.00236648
-0.00264348
-0.00292765
-0.00321551
-0.00350268
-0.00378387
-0.00405286
-0.00430258
-0.00452519
-0.00471223
-0.00485483
-0.00494397
-0.00497077
-0.00492681
-0.00480448
-0.00459731
-0.00430032
-0.00391034
-0.00342624
-0.00284895
-0.00218126
-0.00142877
-0.000599832
0.000295408
0.00124488
0.00223485
0.00325028
0.00427519
0.0052931
0.00628743
0.00724191
0.00814095
0.00896994
0.00971555
0.0103659
0.0109106
0.0113409
0.0116499
0.011832
0.0118832
0.0118012
0.011585
0.0112353
0.0107551
0.0101485
0.00942219
0.00858463
0.00764689
0.00662259
0.00552793
0.00438171
0.00320502
0.00202093
0.000853765
-0.000271598
-0.0013308
-0.00230089
-0.00316158
-0.00389747
-0.00449802
-0.00495807
-0.00527864
-0.00546695
-0.00553573
-0.00550211
-0.00538607
-0.00520868
-0.00499041
-0.00474965
-0.00450168
-0.00425817
-0.00402727
-0.00381395
-0.00362082
-0.00344881
-0.00329794
-0.00316774
-0.00305759
-0.00296672
-0.00289407
-0.00283825
-0.00279743
-0.00276938
-0.0027516
-0.00274145
-0.00273639
-0.00273405
-0.00273235
-0.00272953
-0.00272416
-0.00271515
-0.00270172
-0.00268342
-0.00266005
-0.00263169
-0.00259865
-0.00256142
-0.00252064
-0.00247704
-0.00243141
-0.00238455
-0.00233723
-0.00229017
-0.00224398
-0.00219921
-0.00215626
-0.00211546
-0.00207702
-0.00204104
-0.00200756
-0.00197652
-0.00194783
-0.00192134
-0.00189686
-0.00187418
-0.00185309
-0.00183337
-0.0018148
-0.00179716
-0.00178027
-0.00176393
-0.00174797
-0.00173225
-0.00171662
-0.00170097
-0.00168518
-0.00166918
-0.00165287
-0.00163621
-0.00161913
-0.00160161
-0.00158359
-0.00156507
-0.00154601
-0.00152643
-0.00150629
-0.00148561
-0.00146437
-0.00144258
-0.00142023
-0.00139731
-0.00137379
-0.00134965
-0.00132485
-0.00129931
-0.00127297
-0.00124574
-0.0012175
-0.00118815
-0.0011576
-0.00112579
-0.00109273
-0.00105854
-0.00102344
-0.000988294
-0.000955924
-0.000911376
0.00105362
0.00102037
0.000974864
0.000920949
0.00085864
0.000787869
0.000708886
0.000621918
0.000527028
0.000424089
0.000312758
0.000192456
6.23609e-05
-7.85871e-05
-0.000231649
-0.000398237
-0.000579846
-0.000777961
-0.00099396
-0.00122899
-0.00148387
-0.00175891
-0.00205382
-0.00236757
-0.00269822
-0.00304283
-0.00339739
-0.0037567
-0.00411439
-0.00446296
-0.00479383
-0.00509757
-0.00536406
-0.00558281
-0.00574324
-0.00583509
-0.00584877
-0.00577575
-0.00560893
-0.00534301
-0.00497477
-0.00450317
-0.00392926
-0.00325704
-0.00249343
-0.00164745
-0.000730344
0.000244664
0.00126265
0.00230742
0.0033619
0.00440863
0.0054302
0.00640967
0.00733099
0.00817931
0.00894124
0.009605
0.0101606
0.0105996
0.0109155
0.0111033
0.0111593
0.0110814
0.0108688
0.0105223
0.0100444
0.00943943
0.00871327
0.00787419
0.00693287
0.00590269
0.00479984
0.00364332
0.00245476
0.00125806
7.87891e-05
-0.00105667
-0.0021221
-0.00309259
-0.00394556
-0.00466302
-0.00523263
-0.00564813
-0.00591014
-0.0060266
-0.0060122
-0.00588734
-0.00567627
-0.00540498
-0.00509886
-0.00478059
-0.00446856
-0.00417605
-0.00391124
-0.00367783
-0.0034762
-0.0033046
-0.00316036
-0.00304064
-0.00294293
-0.00286508
-0.0028052
-0.00276133
-0.00273139
-0.00271309
-0.00270393
-0.00270136
-0.00270294
-0.00270645
-0.00270991
-0.00271169
-0.00271042
-0.00270508
-0.00269492
-0.0026795
-0.00265864
-0.00263244
-0.00260121
-0.00256546
-0.00252586
-0.00248316
-0.00243819
-0.00239177
-0.00234472
-0.00229778
-0.00225158
-0.0022067
-0.00216358
-0.00212253
-0.0020838
-0.0020475
-0.00201366
-0.00198226
-0.0019532
-0.00192632
-0.00190146
-0.00187841
-0.00185695
-0.00183688
-0.00181796
-0.00180001
-0.0017828
-0.00176617
-0.00174995
-0.00173397
-0.00171811
-0.00170224
-0.00168626
-0.00167008
-0.00165362
-0.00163681
-0.00161961
-0.00160197
-0.00158386
-0.00156525
-0.00154613
-0.00152647
-0.00150629
-0.00148556
-0.00146428
-0.00144246
-0.00142008
-0.00139714
-0.00137361
-0.00134947
-0.00132468
-0.00129918
-0.00127291
-0.00124577
-0.00121769
-0.00118857
-0.00115833
-0.00112692
-0.00109436
-0.00106078
-0.00102638
-0.000991961
-0.000959886
-0.00091763
0.00139369
0.0013314
0.00125687
0.00118135
0.00110339
0.00102106
0.000933523
0.000840139
0.000740115
0.000632478
0.000516065
0.000389486
0.00025111
9.90562e-05
-6.87714e-05
-0.00025463
-0.00046085
-0.000689726
-0.000943378
-0.00122359
-0.00153166
-0.00186818
-0.00223289
-0.0026245
-0.00304048
-0.00347702
-0.00392887
-0.00438933
-0.00485031
-0.0053024
-0.0057351
-0.00613698
-0.00649607
-0.00680017
-0.00703725
-0.00719584
-0.00726547
-0.00723704
-0.0071032
-0.00685869
-0.00650055
-0.00602819
-0.00544379
-0.00475262
-0.00396258
-0.00308389
-0.00212912
-0.00111287
-5.14513e-05
0.00103757
0.00213586
0.00322482
0.00428606
0.0053019
0.00625574
0.00713248
0.00791867
0.00860277
0.00917512
0.00962793
0.00995518
0.0101525
0.0102167
0.0101461
0.00993999
0.00959923
0.00912612
0.0085245
0.0077999
0.00695996
0.00601485
0.00497752
0.00386394
0.00269315
0.00148717
0.000270648
-0.000929707
-0.00208592
-0.00316978
-0.00415412
-0.00501397
-0.00572808
-0.00628082
-0.00666356
-0.0068752
-0.00692283
-0.00682175
-0.00659463
-0.00626972
-0.00587847
-0.00545261
-0.00502121
-0.00460825
-0.00423106
-0.00389985
-0.00361838
-0.0033854
-0.00319646
-0.0030457
-0.00292718
-0.00283568
-0.00276697
-0.00271765
-0.00268474
-0.00266554
-0.00265738
-0.00265757
-0.00266349
-0.00267267
-0.00268292
-0.00269233
-0.0026993
-0.00270253
-0.00270105
-0.00269414
-0.0026814
-0.00266269
-0.00263815
-0.00260814
-0.00257323
-0.00253413
-0.00249166
-0.00244671
-0.00240015
-0.00235283
-0.00230553
-0.00225895
-0.00221365
-0.00217009
-0.00212863
-0.0020895
-0.00205281
-0.00201861
-0.00198686
-0.00195747
-0.00193029
-0.00190513
-0.0018818
-0.00186007
-0.00183974
-0.00182058
-0.00180239
-0.00178496
-0.00176812
-0.00175169
-0.00173552
-0.00171948
-0.00170345
-0.00168731
-0.00167099
-0.0016544
-0.00163747
-0.00162016
-0.00160242
-0.00158422
-0.00156553
-0.00154634
-0.00152663
-0.00150638
-0.00148561
-0.00146429
-0.00144244
-0.00142003
-0.00139707
-0.00137354
-0.0013494
-0.00132464
-0.00129919
-0.001273
-0.001246
-0.0012181
-0.00118922
-0.0011593
-0.0011283
-0.00109623
-0.00106322
-0.00102946
-0.000995611
-0.000963493
-0.00092395
0.00174653
0.0016535
0.00154843
0.00145037
0.0013559
0.00126079
0.00116269
0.00105975
0.00095004
0.000831481
0.000701878
0.000558862
0.000399849
0.000222029
2.23998e-05
-0.000202167
-0.000454815
-0.000738549
-0.00105606
-0.00140949
-0.00180026
-0.00222879
-0.00269428
-0.00319455
-0.00372587
-0.00428283
-0.00485837
-0.00544373
-0.00602868
-0.00660162
-0.00714992
-0.0076602
-0.00811875
-0.00851189
-0.00882643
-0.00905004
-0.00917171
-0.00918211
-0.00907392
-0.00884214
-0.00848425
-0.00800056
-0.00739449
-0.00667237
-0.00584314
-0.00491838
-0.00391212
-0.00284052
-0.00172144
-0.000573969
0.00058209
0.0017268
0.00284063
0.00390496
0.00490256
0.00581796
0.00663765
0.00735029
0.00794666
0.0084196
0.0087638
0.00897556
0.00905251
0.00899324
0.00879752
0.00846615
0.00800108
0.00740581
0.00668531
0.00584657
0.00489907
0.00385525
0.00273071
0.0015444
0.000318593
-0.000921446
-0.00214796
-0.00333151
-0.00444196
-0.00544982
-0.00632751
-0.0070507
-0.00760036
-0.00796406
-0.0081378
-0.00812648
-0.00794435
-0.00761469
-0.00716845
-0.0066419
-0.00607338
-0.00549966
-0.00495243
-0.00445559
-0.00402398
-0.00366348
-0.00337261
-0.00314481
-0.00297094
-0.0028414
-0.00274751
-0.00268215
-0.00263966
-0.00261551
-0.00260586
-0.00260733
-0.00261683
-0.00263145
-0.00264858
-0.00266596
-0.00268163
-0.00269402
-0.00270184
-0.00270413
-0.00270023
-0.00268979
-0.00267272
-0.00264923
-0.00261977
-0.00258497
-0.00254565
-0.00250272
-0.00245711
-0.00240979
-0.00236166
-0.00231355
-0.00226617
-0.00222014
-0.00217592
-0.00213386
-0.0020942
-0.00205707
-0.00202248
-0.00199041
-0.00196073
-0.0019333
-0.00190792
-0.0018844
-0.00186249
-0.001842
-0.00182268
-0.00180434
-0.00178676
-0.00176978
-0.00175322
-0.00173692
-0.00172075
-0.00170459
-0.00168834
-0.0016719
-0.00165521
-0.00163818
-0.00162078
-0.00160295
-0.00158467
-0.00156591
-0.00154665
-0.00152688
-0.00150658
-0.00148576
-0.0014644
-0.00144251
-0.00142008
-0.00139711
-0.00137357
-0.00134945
-0.00132472
-0.00129933
-0.00127324
-0.00124639
-0.00121869
-0.00119009
-0.00116051
-0.00112992
-0.00109834
-0.00106587
-0.00103268
-0.000999291
-0.000966941
-0.000930299
0.00207085
0.00194786
0.00181323
0.00169347
0.00158284
0.00147439
0.00136395
0.00124817
0.00112371
0.000987191
0.000835216
0.000664304
0.000470834
0.000251027
9.85573e-07
-0.00028321
-0.000605355
-0.000968923
-0.00137683
-0.00183116
-0.00233292
-0.00288177
-0.00347577
-0.00411124
-0.00478264
-0.00548251
-0.00620154
-0.0069287
-0.00765149
-0.00835617
-0.00902814
-0.00965233
-0.0102136
-0.010697
-0.0110887
-0.0113756
-0.0115465
-0.0115918
-0.0115044
-0.0112796
-0.0109153
-0.010413
-0.00977688
-0.00901416
-0.00813502
-0.00715247
-0.00608209
-0.00494171
-0.00375094
-0.0025306
-0.00130219
-8.72125e-05
0.00109339
0.00221986
0.00327412
0.00424016
0.00510434
0.00585544
0.00648473
0.0069857
0.00735385
0.00758631
0.00768151
0.00763874
0.00745801
0.00714019
0.00668708
0.00610174
0.00538854
0.00455377
0.0036062
0.00255765
0.00142329
0.000221932
-0.001024
-0.00228869
-0.00354345
-0.00475748
-0.00589888
-0.00693593
-0.00783848
-0.00857937
-0.0091364
-0.00949307
-0.00964165
-0.00958393
-0.00933176
-0.00890735
-0.00834253
-0.00767685
-0.00695436
-0.00621957
-0.00551299
-0.00486718
-0.00430407
-0.00383424
-0.00345796
-0.00316784
-0.00295196
-0.00279692
-0.00269002
-0.00262047
-0.00257965
-0.0025608
-0.00255847
-0.00256814
-0.00258607
-0.00260888
-0.00263368
-0.00265798
-0.00267976
-0.00269736
-0.00270947
-0.00271516
-0.00271378
-0.00270504
-0.00268894
-0.00266577
-0.00263608
-0.00260063
-0.00256034
-0.00251621
-0.00246929
-0.00242061
-0.00237115
-0.00232177
-0.00227324
-0.00222618
-0.00218107
-0.00213827
-0.00209799
-0.00206035
-0.00202537
-0.00199298
-0.00196306
-0.00193544
-0.00190993
-0.00188628
-0.00186429
-0.00184371
-0.00182432
-0.0018059
-0.00178826
-0.00177121
-0.00175456
-0.00173819
-0.00172194
-0.0017057
-0.00168936
-0.00167284
-0.00165606
-0.00163895
-0.00162147
-0.00160357
-0.00158522
-0.00156639
-0.00154707
-0.00152724
-0.00150689
-0.00148601
-0.00146462
-0.00144269
-0.00142023
-0.00139724
-0.0013737
-0.0013496
-0.00132491
-0.0012996
-0.00127363
-0.00124694
-0.00121946
-0.00119114
-0.00116192
-0.00113175
-0.00110064
-0.00106867
-0.00103599
-0.00100298
-0.000970293
-0.00093654
0.00232306
0.00217315
0.00201204
0.00187275
0.001747
0.00162493
0.00150032
0.0013681
0.00122337
0.0010613
0.000877211
0.000666449
0.000424343
0.000146188
-0.000172695
-0.000536832
-0.000950397
-0.00141697
-0.00193925
-0.00251875
-0.00315554
-0.00384793
-0.00459233
-0.00538312
-0.00621256
-0.00707094
-0.00794662
-0.00882636
-0.00969554
-0.0105385
-0.0113391
-0.0120808
-0.0127472
-0.0133227
-0.0137924
-0.014143
-0.0143628
-0.0144422
-0.0143739
-0.0141534
-0.0137792
-0.0132535
-0.0125809
-0.0117697
-0.0108313
-0.0097802
-0.00863359
-0.00741112
-0.00613432
-0.00482601
-0.00350963
-0.00220857
-0.000945469
0.00025849
0.00138411
0.00241464
0.00333611
0.00413736
0.00481008
0.00534845
0.00574885
0.00600936
0.00612932
0.00610881
0.0059483
0.00564886
0.00521213
0.00464068
0.00393837
0.00311076
0.00216592
0.00111502
-2.72018e-05
-0.0012421
-0.00250711
-0.00379592
-0.00507895
-0.00632415
-0.00749797
-0.00856665
-0.00949762
-0.010261
-0.0108316
-0.0111899
-0.0113236
-0.0112313
-0.0109215
-0.0104141
-0.00974024
-0.00894081
-0.00806391
-0.00716072
-0.00628048
-0.0054654
-0.00474646
-0.00414123
-0.00365412
-0.00327869
-0.00300132
-0.00280517
-0.00267331
-0.00259074
-0.00254523
-0.00252713
-0.00252888
-0.0025445
-0.0025692
-0.00259899
-0.00263049
-0.00266096
-0.00268816
-0.00271032
-0.00272608
-0.00273446
-0.00273487
-0.00272705
-0.0027111
-0.00268743
-0.0026567
-0.00261981
-0.00257779
-0.00253178
-0.00248292
-0.00243234
-0.00238108
-0.00233006
-0.00228007
-0.00223174
-0.00218557
-0.0021419
-0.00210093
-0.00206276
-0.00202739
-0.00199472
-0.00196461
-0.00193687
-0.00191128
-0.0018876
-0.00186559
-0.001845
-0.00182561
-0.0018072
-0.00178954
-0.00177247
-0.0017558
-0.00173939
-0.0017231
-0.00170681
-0.00169042
-0.00167383
-0.00165698
-0.00163981
-0.00162226
-0.00160429
-0.00158587
-0.00156698
-0.00154759
-0.0015277
-0.0015073
-0.00148637
-0.00146493
-0.00144297
-0.00142048
-0.00139747
-0.00137393
-0.00134985
-0.00132521
-0.00129999
-0.00127414
-0.00124762
-0.00122038
-0.00119235
-0.00116348
-0.00113372
-0.00110307
-0.00107156
-0.00103934
-0.00100664
-0.000973551
-0.000942508
0.00246096
0.00228914
0.00210634
0.00195067
0.00181125
0.00167533
0.00153459
0.00138216
0.00121149
0.0010163
0.000790602
0.000528595
0.000224631
-0.000126797
-0.000530956
-0.000992712
-0.00151628
-0.00210495
-0.00276075
-0.00348416
-0.00427383
-0.00512637
-0.0060362
-0.00699552
-0.00799437
-0.00902079
-0.010061
-0.0110998
-0.0121207
-0.0131065
-0.0140397
-0.0149025
-0.0156776
-0.0163484
-0.0168994
-0.0173166
-0.0175878
-0.017703
-0.0176547
-0.0174382
-0.0170526
-0.0165003
-0.0157864
-0.0149201
-0.0139142
-0.0127844
-0.0115499
-0.0102321
-0.00885475
-0.00744287
-0.00602217
-0.00461822
-0.00325568
-0.00195752
-0.000744353
0.000366059
0.00135917
0.00222375
0.00295179
0.00353819
0.00398025
0.00427712
0.00442914
0.00443732
0.00430278
0.00402686
0.00361116
0.00305784
0.00237022
0.00155321
0.000614181
-0.000436317
-0.00158394
-0.00281022
-0.00409241
-0.0054037
-0.00671368
-0.00798907
-0.00919479
-0.0102952
-0.0112555
-0.0120432
-0.0126304
-0.0129952
-0.0131212
-0.0130034
-0.0126471
-0.0120693
-0.0112989
-0.0103769
-0.00935331
-0.00828438
-0.00722694
-0.00623268
-0.00534254
-0.00458288
-0.00396433
-0.00348346
-0.00312647
-0.00287389
-0.00270477
-0.00259971
-0.00254235
-0.00251967
-0.00252152
-0.00254007
-0.00256921
-0.0026041
-0.0026408
-0.00267614
-0.00270762
-0.0027333
-0.0027517
-0.00276181
-0.00276305
-0.00275522
-0.00273852
-0.00271347
-0.00268087
-0.00264177
-0.00259733
-0.00254883
-0.0024975
-0.00244457
-0.00239114
-0.00233818
-0.0022865
-0.00223675
-0.00218942
-0.00214482
-0.00210314
-0.00206445
-0.00202871
-0.00199581
-0.00196557
-0.00193777
-0.00191218
-0.00188853
-0.00186657
-0.00184605
-0.00182672
-0.00180835
-0.00179074
-0.0017737
-0.00175704
-0.00174063
-0.00172432
-0.001708
-0.00169156
-0.00167493
-0.00165802
-0.00164079
-0.00162317
-0.00160514
-0.00158665
-0.00156769
-0.00154824
-0.00152828
-0.00150782
-0.00148684
-0.00146535
-0.00144334
-0.00142083
-0.0013978
-0.00137426
-0.0013502
-0.00132561
-0.00130047
-0.00127475
-0.00124841
-0.0012214
-0.00119367
-0.00116514
-0.00113578
-0.00110555
-0.00107447
-0.00104264
-0.00101019
-0.000976684
-0.000948036
0.00244827
0.00226112
0.00206279
0.00189455
0.00174313
0.0015932
0.00143441
0.00125816
0.0010563
0.000821154
0.000545499
0.000222503
-0.000154325
-0.000591109
-0.00109347
-0.00166632
-0.00231358
-0.00303789
-0.00384025
-0.00471976
-0.00567341
-0.00669589
-0.00777955
-0.00891447
-0.0100886
-0.0112879
-0.0124969
-0.0136985
-0.0148748
-0.0160073
-0.0170771
-0.0180654
-0.0189539
-0.019725
-0.0203621
-0.0208505
-0.0211773
-0.0213317
-0.0213057
-0.0210943
-0.0206973
-0.0201163
-0.0193574
-0.0184306
-0.0173497
-0.0161322
-0.0147987
-0.0133731
-0.0118812
-0.0103504
-0.00880909
-0.00728528
-0.00580598
-0.0043963
-0.00307864
-0.00187208
-0.000792023
0.000150016
0.000946227
0.00159214
0.00208604
0.00242819
0.00262009
0.00266379
0.00256126
0.00231421
0.00192431
0.00139346
0.000724452
-7.83846e-05
-0.00100834
-0.0020554
-0.0032056
-0.00444058
-0.00573742
-0.00706878
-0.00840343
-0.00970691
-0.0109427
-0.0120733
-0.0130619
-0.013874
-0.0144787
-0.0148518
-0.0149744
-0.0148375
-0.0144436
-0.0138065
-0.0129527
-0.0119218
-0.0107643
-0.00953965
-0.00831056
-0.00713713
-0.00607009
-0.00514544
-0.00438165
-0.00378009
-0.00332847
-0.0030059
-0.00278802
-0.00265113
-0.00257457
-0.00254158
-0.00253908
-0.00255703
-0.00258776
-0.00262541
-0.00266532
-0.00270382
-0.00273806
-0.00276588
-0.00278567
-0.00279634
-0.00279732
-0.00278846
-0.00277006
-0.00274276
-0.00270752
-0.00266552
-0.00261808
-0.00256657
-0.00251238
-0.00245677
-0.00240093
-0.00234586
-0.00229238
-0.00224115
-0.00219263
-0.00214711
-0.00210476
-0.00206559
-0.00202955
-0.00199648
-0.00196618
-0.0019384
-0.00191287
-0.00188931
-0.00186747
-0.00184705
-0.00182783
-0.00180955
-0.00179202
-0.00177502
-0.0017584
-0.001742
-0.00172569
-0.00170934
-0.00169288
-0.00167619
-0.00165923
-0.00164193
-0.00162425
-0.00160614
-0.00158758
-0.00156854