/*--------------------------------*- C++ -*----------------------------------*\
  =========                 |
  \\      /  F ield         | OpenFOAM: The Open Source CFD Toolbox
   \\    /   O peration     | Website:  https://openfoam.org
    \\  /    A nd           | Version:  8
     \\/     M anipulation  |
\*---------------------------------------------------------------------------*/
FoamFile
{
    version     2.0;
    format      ascii;
    class       surfaceScalarField;
    location    "0.72";
    object      phi;
}
// * * * * * * * * * * * * * * * * * * * * * * * * * * * * * * * * * * * * * //

dimensions      [0 3 -1 0 0 0 0];

internalField   nonuniform List<scalar> 
24170
(
-2.48664e-12
2.48664e-12
5.14803e-12
-7.63467e-12
2.17107e-11
-1.65626e-11
4.54198e-11
-2.37092e-11
7.50179e-11
-2.9598e-11
1.09772e-10
-3.4754e-11
1.49238e-10
-3.94663e-11
1.93158e-10
-4.39202e-11
2.41429e-10
-4.82703e-11
2.94135e-10
-5.27066e-11
3.51625e-10
-5.74901e-11
4.14582e-10
-6.29565e-11
4.84006e-10
-6.94239e-11
5.60633e-10
-7.66268e-11
6.41052e-10
-8.04196e-11
6.95169e-10
-5.41169e-11
6.16633e-10
7.85357e-11
1.62605e-09
-1.00942e-09
-2.35715e-12
4.84379e-12
2.34749e-11
-3.34667e-11
7.64559e-11
-6.95437e-11
1.51348e-10
-9.86009e-11
2.44492e-10
-1.22742e-10
3.53507e-10
-1.4377e-10
4.7683e-10
-1.62789e-10
6.13357e-10
-1.80448e-10
7.62314e-10
-1.97227e-10
9.2322e-10
-2.13612e-10
1.09583e-09
-2.30103e-10
1.27981e-09
-2.46935e-10
1.4734e-09
-2.63017e-10
1.66903e-09
-2.72256e-10
1.83822e-09
-2.49603e-10
1.8815e-09
-9.73959e-11
1.42114e-09
5.38892e-10
3.63331e-09
-5.86122e-10
2.49149e-12
2.3523e-12
5.16608e-11
-8.2636e-11
1.47033e-10
-1.64916e-10
2.80278e-10
-2.31846e-10
4.45272e-10
-2.87736e-10
6.37733e-10
-3.36231e-10
8.54611e-10
-3.79667e-10
1.09348e-09
-4.19318e-10
1.35221e-09
-4.5596e-10
1.62871e-09
-4.90113e-10
1.92042e-09
-5.21812e-10
2.22296e-09
-5.49468e-10
2.5264e-09
-5.66458e-10
2.80541e-09
-5.51269e-10
2.99294e-09
-4.37132e-10
2.91264e-09
-1.70925e-11
2.10078e-09
1.35075e-09
5.71598e-09
1.81071e-11
1.19283e-11
-9.57597e-12
9.04741e-11
-1.61182e-10
2.34704e-10
-3.09146e-10
4.33653e-10
-4.30795e-10
6.78675e-10
-5.32758e-10
9.63338e-10
-6.20894e-10
1.28268e-09
-6.99005e-10
1.63232e-09
-7.68967e-10
2.00791e-09
-8.31549e-10
2.4044e-09
-8.86595e-10
2.8148e-09
-9.32219e-10
3.22744e-09
-9.62103e-10
3.61936e-09
-9.58378e-10
3.94171e-09
-8.73617e-10
4.08811e-09
-5.83531e-10
3.83699e-09
2.34022e-10
2.78634e-09
2.4014e-09
7.75926e-09
7.43064e-10
2.60376e-11
-3.56135e-11
1.40401e-10
-2.75546e-10
3.40239e-10
-5.08984e-10
6.12136e-10
-7.02692e-10
9.44874e-10
-8.65496e-10
1.32961e-09
-1.00563e-09
1.75896e-09
-1.12835e-09
2.22589e-09
-1.23591e-09
2.72276e-09
-1.32841e-09
3.24004e-09
-1.40387e-09
3.76419e-09
-1.45638e-09
4.27335e-09
-1.47126e-09
4.72853e-09
-1.41355e-09
5.05692e-09
-1.20201e-09
5.12395e-09
-6.50557e-10
4.70343e-09
6.54537e-10
3.51217e-09
3.59266e-09
9.67491e-09
1.59652e-09
4.46432e-11
-8.02567e-11
2.0143e-10
-4.32333e-10
4.63575e-10
-7.71128e-10
8.15167e-10
-1.05428e-09
1.24234e-09
-1.29267e-09
1.73354e-09
-1.49683e-09
2.27846e-09
-1.67327e-09
2.8666e-09
-1.82404e-09
3.48588e-09
-1.94769e-09
4.12081e-09
-2.03881e-09
4.74945e-09
-2.08502e-09
5.33789e-09
-2.0597e-09
5.83066e-09
-1.90632e-09
6.13566e-09
-1.50701e-09
6.10685e-09
-6.21752e-10
5.54628e-09
1.21511e-09
4.29792e-09
4.84103e-09
1.14135e-08
2.55938e-09
6.7357e-11
-1.47614e-10
2.7289e-10
-6.37866e-10
6.03528e-10
-1.10177e-09
1.04055e-09
-1.49131e-09
1.56731e-09
-1.81942e-09
2.16926e-09
-2.09879e-09
2.83261e-09
-2.33663e-09
3.5426e-09
-2.53403e-09
4.28167e-09
-2.68676e-09
5.02709e-09
-2.78423e-09
5.74732e-09
-2.80524e-09
6.39605e-09
-2.70844e-09
6.90363e-09
-2.4139e-09
7.16682e-09
-1.7702e-09
7.04536e-09
-5.00292e-10
6.38987e-09
1.8706e-09
5.15639e-09
6.0745e-09
1.29436e-08
3.62626e-09
9.35132e-11
-2.41127e-10
3.5328e-10
-8.97633e-10
7.57468e-10
-1.50595e-09
1.28399e-09
-2.01783e-09
1.9132e-09
-2.44864e-09
2.62732e-09
-2.8129e-09
3.40855e-09
-3.11786e-09
4.23718e-09
-3.36266e-09
5.08935e-09
-3.53893e-09
5.93433e-09
-3.62922e-09
6.73073e-09
-3.60164e-09
7.42121e-09
-3.39891e-09
7.92645e-09
-2.91914e-09
8.14184e-09
-1.98559e-09
7.94709e-09
-3.0554e-10
7.24974e-09
2.56795e-09
6.09313e-09
7.23111e-09
1.42435e-08
4.79324e-09
1.22129e-10
-3.63256e-10
4.40105e-10
-1.21561e-09
9.20987e-10
-1.98684e-09
1.53857e-09
-2.63541e-09
2.27001e-09
-3.18008e-09
3.094e-09
-3.63689e-09
3.98844e-09
-4.0123e-09
4.92818e-09
-4.30239e-09
5.88263e-09
-4.49339e-09
6.81303e-09
-4.55962e-09
7.66905e-09
-4.45766e-09
8.38518e-09
-4.11504e-09
8.87844e-09
-3.41241e-09
9.05221e-09
-2.15937e-09
8.81557e-09
-6.88926e-11
8.13181e-09
3.2517e-09
7.10526e-09
8.25766e-09
1.52949e-08
6.05388e-09
1.51859e-10
-5.15115e-10
5.29723e-10
-1.59347e-09
1.08757e-09
-2.54468e-09
1.79432e-09
-3.34216e-09
2.62367e-09
-4.00942e-09
3.55069e-09
-4.56392e-09
4.54884e-09
-5.01045e-09
5.58746e-09
-5.34101e-09
6.6294e-09
-5.53532e-09
7.62863e-09
-5.55885e-09
8.52797e-09
-5.35699e-09
9.2577e-09
-4.84477e-09
9.73756e-09
-3.89226e-09
9.88646e-09
-2.30827e-09
9.64707e-09
1.70493e-10
9.03114e-09
3.86764e-09
8.18058e-09
9.10822e-09
1.60796e-08
7.39584e-09
1.81144e-10
-6.96258e-10
6.17246e-10
-2.02958e-09
1.24833e-09
-3.17577e-09
2.03772e-09
-4.13155e-09
2.95553e-09
-4.92723e-09
3.97329e-09
-5.58168e-09
5.06021e-09
-6.09737e-09
6.18052e-09
-6.46133e-09
7.29139e-09
-6.64619e-09
8.34122e-09
-6.60868e-09
9.26889e-09
-6.28466e-09
1.0005e-08
-5.58092e-09
1.04778e-08
-4.36505e-09
1.06266e-08
-2.45705e-09
1.04274e-08
3.69677e-10
9.93008e-09
4.36498e-09
9.29563e-09
9.74266e-09
1.6578e-08
8.79724e-09
1.74348e-10
-8.70606e-10
5.82654e-10
-2.43788e-09
1.16543e-09
-3.75854e-09
1.88667e-09
-4.8528e-09
2.71828e-09
-5.75884e-09
3.63381e-09
-6.49721e-09
4.60447e-09
-7.06802e-09
5.59688e-09
-7.45374e-09
6.57167e-09
-7.62099e-09
7.48283e-09
-7.51984e-09
8.27838e-09
-7.08021e-09
8.90343e-09
-6.20597e-09
9.30711e-09
-4.76873e-09
9.45553e-09
-2.60547e-09
9.3515e-09
4.73702e-10
9.05803e-09
4.65845e-09
8.71531e-09
1.00854e-08
1.67619e-08
8.53137e-09
2.18699e-10
-1.0893e-09
7.25134e-10
-2.94432e-09
1.43778e-09
-4.47119e-09
2.311e-09
-5.72601e-09
3.30999e-09
-6.75783e-09
4.40224e-09
-7.58946e-09
5.55249e-09
-8.21826e-09
6.72011e-09
-8.62136e-09
7.85806e-09
-8.75894e-09
8.91318e-09
-8.57495e-09
9.82843e-09
-7.99546e-09
1.05482e-08
-6.9257e-09
1.10276e-08
-5.24819e-09
1.12475e-08
-2.8254e-09
1.12331e-08
4.8813e-10
1.10723e-08
4.81929e-09
1.09232e-08
1.02345e-08
1.669e-08
1.09951e-08
2.64508e-10
-1.35381e-09
8.72032e-10
-3.55184e-09
1.71554e-09
-5.31471e-09
2.73837e-09
-6.74883e-09
3.89891e-09
-7.91837e-09
5.15877e-09
-8.84932e-09
6.47674e-09
-9.53623e-09
7.80599e-09
-9.95062e-09
9.09366e-09
-1.00466e-08
1.02824e-08
-9.7637e-09
1.13146e-08
-9.02768e-09
1.21399e-08
-7.75096e-09
1.27261e-08
-5.83446e-09
1.30745e-08
-3.17373e-09
1.32348e-08
3.27796e-10
1.33173e-08
4.7368e-09
1.34905e-08
1.00613e-08
1.62227e-08
1.39578e-08
3.01485e-10
-1.6553e-09
9.88729e-10
-4.23909e-09
1.93174e-09
-6.25772e-09
3.06353e-09
-7.88062e-09
4.33739e-09
-9.19223e-09
5.71125e-09
-1.02232e-08
7.14078e-09
-1.09658e-08
8.57676e-09
-1.13866e-08
9.96533e-09
-1.14352e-08
1.12512e-08
-1.10495e-08
1.23833e-08
-1.01598e-08
1.33241e-08
-8.69174e-09
1.40607e-08
-6.57103e-09
1.46177e-08
-3.73081e-09
1.50685e-08
-1.22939e-10
1.55384e-08
4.26684e-09
1.61971e-08
9.40256e-09
1.51857e-08
1.72341e-08
3.08645e-10
-1.96394e-09
1.00663e-09
-4.93707e-09
1.95446e-09
-7.20556e-09
3.08142e-09
-9.00758e-09
4.34134e-09
-1.04521e-08
5.69439e-09
-1.15762e-08
7.09998e-09
-1.23714e-08
8.51439e-09
-1.2801e-08
9.89194e-09
-1.28127e-08
1.11891e-08
-1.23467e-08
1.23711e-08
-1.13418e-08
1.3421e-08
-9.74168e-09
1.43497e-08
-7.49975e-09
1.5205e-08
-4.58609e-09
1.6077e-08
-9.94904e-10
1.70965e-08
3.2473e-09
1.84235e-08
8.07554e-09
1.33835e-08
2.02257e-08
2.49757e-10
-2.2137e-09
8.07785e-10
-5.49509e-09
1.55754e-09
-7.95532e-09
2.44212e-09
-9.89215e-09
3.42817e-09
-1.14382e-08
4.48972e-09
-1.26378e-08
5.60206e-09
-1.34837e-08
6.7402e-09
-1.39391e-08
7.88036e-09
-1.39529e-08
9.004e-09
-1.34703e-08
1.01038e-08
-1.24416e-08
1.11908e-08
-1.08287e-08
1.23013e-08
-8.61023e-09
1.35017e-08
-5.78647e-09
1.48896e-08
-2.38279e-09
1.6589e-08
1.54787e-09
1.87395e-08
5.92501e-09
1.06439e-08
2.14791e-08
7.13024e-11
-2.285e-09
2.20713e-10
-5.6445e-09
4.1388e-10
-8.14849e-09
6.39669e-10
-1.01179e-08
8.97972e-10
-1.16965e-08
1.19391e-09
-1.29337e-08
1.53579e-09
-1.38256e-08
1.93485e-09
-1.43382e-08
2.40655e-09
-1.44246e-08
2.97306e-09
-1.40368e-08
3.66673e-09
-1.31353e-08
4.53373e-09
-1.16957e-08
5.63699e-09
-9.71349e-09
7.05718e-09
-7.20666e-09
8.89077e-09
-4.21638e-09
1.12446e-08
-8.0599e-10
1.42277e-08
2.94193e-09
6.93048e-09
1.79411e-08
-2.83929e-10
-2.00107e-09
-9.26779e-10
-5.00165e-09
-1.80079e-09
-7.27448e-09
-2.83235e-09
-9.08637e-09
-3.9657e-09
-1.05632e-08
-5.14698e-09
-1.17524e-08
-6.31812e-09
-1.26544e-08
-7.41449e-09
-1.32418e-08
-8.36423e-09
-1.34748e-08
-9.08839e-09
-1.33127e-08
-9.50135e-09
-1.27223e-08
-9.51175e-09
-1.16853e-08
-9.02392e-09
-1.02013e-08
-7.94034e-09
-8.29023e-09
-6.16529e-09
-5.99143e-09
-3.60967e-09
-3.36162e-09
-1.96688e-10
-4.71043e-10
2.59997e-09
4.13383e-09
-4.11325e-10
-1.58975e-09
-1.34136e-09
-4.07162e-09
-2.61064e-09
-6.00519e-09
-4.12476e-09
-7.57226e-09
-5.81899e-09
-8.86893e-09
-7.63473e-09
-9.9367e-09
-9.50992e-09
-1.07792e-08
-1.13755e-08
-1.13763e-08
-1.31549e-08
-1.16954e-08
-1.47657e-08
-1.17019e-08
-1.61213e-08
-1.13667e-08
-1.7135e-08
-1.06717e-08
-1.77221e-08
-9.61422e-09
-1.78042e-08
-8.2081e-09
-1.7312e-08
-6.48357e-09
-1.61884e-08
-4.48524e-09
-1.43904e-08
-2.26908e-09
1.02261e-10
-1.18927e-08
-4.38337e-10
-1.15141e-09
-1.43606e-09
-3.0739e-09
-2.81142e-09
-4.62983e-09
-4.47187e-09
-5.91181e-09
-6.3553e-09
-6.9855e-09
-8.40634e-09
-7.88566e-09
-1.05666e-08
-8.61902e-09
-1.27705e-08
-9.17237e-09
-1.49447e-08
-9.52115e-09
-1.70094e-08
-9.63721e-09
-1.88807e-08
-9.49533e-09
-2.04742e-08
-9.07825e-09
-2.17084e-08
-8.38e-09
-2.25089e-08
-7.40762e-09
-2.28113e-08
-6.18114e-09
-2.25643e-08
-4.73227e-09
-2.17313e-08
-3.10207e-09
-1.33838e-09
-2.02907e-08
-3.89016e-10
-7.62394e-10
-1.29001e-09
-2.1729e-09
-2.55263e-09
-3.36722e-09
-4.10015e-09
-4.36428e-09
-5.88017e-09
-5.20548e-09
-7.84614e-09
-5.91969e-09
-9.94926e-09
-6.5159e-09
-1.21347e-08
-6.98697e-09
-1.43402e-08
-7.31557e-09
-1.64973e-08
-7.48016e-09
-1.85325e-08
-7.4601e-09
-2.0371e-08
-7.2398e-09
-2.19394e-08
-6.81153e-09
-2.317e-08
-6.17706e-09
-2.40032e-08
-5.34796e-09
-2.43906e-08
-4.34482e-09
-2.4297e-08
-3.19573e-09
-1.93484e-09
-2.37005e-08
-3.05449e-10
-4.56945e-10
-1.03564e-09
-1.44272e-09
-2.08385e-09
-2.319e-09
-3.39202e-09
-3.05611e-09
-4.91815e-09
-3.67936e-09
-6.62516e-09
-4.21268e-09
-8.47498e-09
-4.66609e-09
-1.04251e-08
-5.03685e-09
-1.24271e-08
-5.31362e-09
-1.44264e-08
-5.48083e-09
-1.63638e-08
-5.52265e-09
-1.81775e-08
-5.42608e-09
-1.98058e-08
-5.18328e-09
-2.11899e-08
-4.7929e-09
-2.22773e-08
-4.26059e-09
-2.30235e-08
-3.59859e-09
-2.33945e-08
-2.8248e-09
-1.96215e-09
-2.33672e-08
-2.15976e-10
-2.40969e-10
-7.61374e-10
-8.97319e-10
-1.57103e-09
-1.50934e-09
-2.60265e-09
-2.02449e-09
-3.82301e-09
-2.459e-09
-5.20336e-09
-2.83234e-09
-6.7153e-09
-3.15415e-09
-8.32778e-09
-3.42436e-09
-1.00053e-08
-3.63607e-09
-1.17074e-08
-3.77872e-09
-1.33892e-08
-3.8409e-09
-1.50026e-08
-3.8127e-09
-1.64986e-08
-3.6873e-09
-1.78294e-08
-3.46209e-09
-1.89508e-08
-3.13913e-09
-1.98244e-08
-2.72503e-09
-2.04188e-08
-2.23039e-09
-1.66951e-09
-2.07114e-08
-1.36699e-10
-1.0427e-10
-5.16249e-10
-5.17769e-10
-1.10572e-09
-9.19865e-10
-1.87413e-09
-1.25609e-09
-2.79521e-09
-1.53791e-09
-3.84712e-09
-1.78043e-09
-5.00952e-09
-1.99175e-09
-6.26089e-09
-2.17299e-09
-7.57669e-09
-2.32027e-09
-8.92851e-09
-2.4269e-09
-1.02841e-08
-2.48527e-09
-1.16084e-08
-2.48845e-09
-1.28644e-08
-2.43126e-09
-1.40155e-08
-2.31102e-09
-1.50267e-08
-2.12798e-09
-1.58664e-08
-1.8853e-09
-1.6508e-08
-1.58875e-09
-1.24648e-09
-1.69311e-08
-7.48375e-11
-2.94325e-11
-3.21148e-10
-2.71459e-10
-7.26862e-10
-5.14152e-10
-1.26857e-09
-7.14377e-10
-1.92578e-09
-8.80712e-10
-2.68238e-09
-1.02383e-09
-3.52446e-09
-1.14966e-09
-4.43793e-09
-1.25953e-09
-5.40679e-09
-1.35142e-09
-6.41223e-09
-1.42145e-09
-7.43248e-09
-1.46503e-09
-8.44314e-09
-1.47779e-09
-9.41815e-09
-1.45625e-09
-1.03308e-08
-1.39834e-09
-1.11552e-08
-1.30361e-09
-1.18671e-08
-1.17335e-09
-1.24455e-08
-1.01037e-09
-8.18787e-10
-1.28732e-08
-3.19746e-11
2.54204e-12
-1.79623e-10
-1.2381e-10
-4.4153e-10
-2.52246e-10
-7.99718e-10
-3.56189e-10
-1.23881e-09
-4.4162e-10
-1.74758e-09
-5.1506e-10
-2.31708e-09
-5.80162e-10
-2.93871e-09
-6.3789e-10
-3.60279e-09
-6.87345e-10
-4.29769e-09
-7.26547e-10
-5.00965e-09
-7.53073e-10
-5.72289e-09
-7.64541e-10
-6.42016e-09
-7.58979e-10
-7.08342e-09
-7.35082e-10
-7.69467e-09
-6.92355e-10
-8.23686e-09
-6.31168e-10
-8.69453e-09
-5.52694e-10
-4.58697e-10
-9.05462e-09
-6.57608e-12
9.11812e-12
-8.60275e-11
-4.43584e-11
-2.40332e-10
-9.79406e-11
-4.56184e-10
-1.40337e-10
-7.23031e-10
-1.74773e-10
-1.03374e-09
-2.04349e-10
-1.38313e-09
-2.30778e-10
-1.76646e-09
-2.54556e-10
-2.17844e-09
-2.75361e-10
-2.6126e-09
-2.92394e-10
-3.06102e-09
-3.04648e-10
-3.51445e-09
-3.11108e-10
-3.96253e-09
-3.10905e-10
-4.39419e-09
-3.0342e-10
-4.7982e-09
-2.8835e-10
-5.16363e-09
-2.65734e-10
-5.4804e-09
-2.35927e-10
-1.99485e-10
-5.73961e-09
4.57898e-12
4.53914e-12
-3.09175e-11
-8.86194e-12
-1.07352e-10
-2.15057e-11
-2.16421e-10
-3.12685e-11
-3.5211e-10
-3.90847e-11
-5.10664e-10
-4.57948e-11
-6.89593e-10
-5.18484e-11
-8.86766e-10
-5.73834e-11
-1.09979e-09
-6.23339e-11
-1.32567e-09
-6.65165e-11
-1.56063e-09
-6.96932e-11
-1.80011e-09
-7.1619e-11
-2.03894e-09
-7.20763e-11
-2.27146e-09
-7.09016e-11
-2.49181e-09
-6.79998e-11
-2.69419e-09
-6.33523e-11
-2.87313e-09
-5.69919e-11
-4.90085e-11
-3.02361e-09
4.53913e-12
-4.32281e-12
-2.58285e-11
-5.7097e-11
-9.61817e-11
-1.41976e-10
-1.93825e-10
-2.51208e-10
-3.13542e-10
-3.80059e-10
-4.49752e-10
-5.21371e-10
-5.93447e-10
-6.64349e-10
-7.32349e-10
-7.95701e-10
-8.52693e-10
-9.01701e-10
6.59148e-11
-6.59148e-11
2.33241e-10
-1.67326e-10
4.63226e-10
-2.29985e-10
7.17973e-10
-2.54747e-10
9.66598e-10
-2.48625e-10
1.18512e-09
-2.1852e-10
1.35566e-09
-1.70544e-10
1.46552e-09
-1.09862e-10
1.50617e-09
-4.0647e-11
1.47216e-09
3.40126e-11
1.36046e-09
1.11702e-10
1.16946e-09
1.90994e-10
8.98444e-10
2.71018e-10
5.46982e-10
3.51462e-10
1.14567e-10
4.32415e-10
-3.99691e-10
5.14257e-10
-9.97213e-10
5.97522e-10
-1.67997e-09
6.82753e-10
-2.45039e-09
7.70422e-10
-3.31122e-09
8.60833e-10
-4.26526e-09
9.54042e-10
-5.31507e-09
1.0498e-09
-6.46259e-09
1.14752e-09
-7.70887e-09
1.24628e-09
-9.05363e-09
1.34477e-09
-1.0495e-08
1.44138e-09
-1.20292e-08
1.5342e-09
-1.36503e-08
1.62104e-09
-1.53498e-08
1.6995e-09
-1.71168e-08
1.76701e-09
-1.89377e-08
1.82093e-09
-2.07963e-08
1.85857e-09
-2.26736e-08
1.87734e-09
-2.45484e-08
1.87479e-09
-2.63971e-08
1.84871e-09
-2.81944e-08
1.79725e-09
-2.99134e-08
1.71901e-09
-3.15265e-08
1.61309e-09
-3.30057e-08
1.47919e-09
-3.43233e-08
1.31766e-09
-3.54529e-08
1.12952e-09
-3.63693e-08
9.1647e-10
-3.70502e-08
6.80843e-10
-3.74758e-08
4.25607e-10
-3.76303e-08
1.54567e-10
-3.75004e-08
-1.29954e-10
-3.70785e-08
-4.2184e-10
-3.63615e-08
-7.17015e-10
-3.53504e-08
-1.01116e-09
-3.40506e-08
-1.29975e-09
-3.2472e-08
-1.57858e-09
-3.06282e-08
-1.84381e-09
-2.85361e-08
-2.09209e-09
-2.62155e-08
-2.32063e-09
-2.36883e-08
-2.52721e-09
-2.09781e-08
-2.71025e-09
-1.81093e-08
-2.86874e-09
-1.51071e-08
-3.00219e-09
-1.19966e-08
-3.11055e-09
-8.80253e-09
-3.19404e-09
-5.54951e-09
-3.25302e-09
-2.26176e-09
-3.28775e-09
1.03662e-09
-3.29837e-09
4.32177e-09
-3.28515e-09
7.56922e-09
-3.24744e-09
1.07535e-08
-3.18429e-09
1.38485e-08
-3.09497e-09
1.68267e-08
-2.9782e-09
1.96591e-08
-2.83243e-09
2.23152e-08
-2.6561e-09
2.47631e-08
-2.44786e-09
2.69699e-08
-2.20686e-09
2.89029e-08
-1.933e-09
3.05302e-08
-1.62724e-09
3.1822e-08
-1.29184e-09
3.27526e-08
-9.30548e-10
3.33014e-08
-5.48811e-10
3.34551e-08
-1.53708e-10
3.32077e-08
2.4733e-10
3.25664e-08
6.413e-10
3.15461e-08
1.02039e-09
3.01733e-08
1.37273e-09
2.84859e-08
1.68741e-09
2.65313e-08
1.9546e-09
2.43652e-08
2.1661e-09
2.20491e-08
2.31608e-09
1.96476e-08
2.40157e-09
1.72248e-08
2.42282e-09
1.48414e-08
2.38332e-09
1.2552e-08
2.28947e-09
1.04019e-08
2.15008e-09
8.42635e-09
1.97553e-09
6.64947e-09
1.77687e-09
5.08456e-09
1.56491e-09
3.73506e-09
1.3495e-09
2.59606e-09
1.139e-09
1.65588e-09
9.40179e-10
8.97624e-10
7.5826e-10
3.00441e-10
5.97184e-10
-1.5938e-10
4.59821e-10
-5.0736e-10
3.4798e-10
-7.69584e-10
2.62224e-10
-9.71282e-10
2.01698e-10
-1.13533e-09
1.64045e-10
-1.28086e-09
1.45531e-10
-1.42234e-09
1.41482e-10
-1.56922e-09
1.46875e-10
-1.72617e-09
1.56956e-10
-1.89389e-09
1.67718e-10
-2.07005e-09
1.76164e-10
-2.25041e-09
1.80357e-10
-2.42972e-09
1.79306e-10
-2.60249e-09
1.72778e-10
-2.76358e-09
1.61083e-10
-2.90847e-09
1.44893e-10
-3.03355e-09
1.25084e-10
-3.13619e-09
1.02636e-10
-3.21474e-09
7.85471e-11
-3.26852e-09
5.37839e-11
-3.29775e-09
2.92341e-11
-3.30351e-09
5.75068e-12
-3.28729e-09
-1.62115e-11
-3.25141e-09
-3.5884e-11
-3.19837e-09
-5.30414e-11
-3.13094e-09
-6.74278e-11
-3.05199e-09
-7.89503e-11
-2.96435e-09
-8.76366e-11
-2.87074e-09
-9.36137e-11
-2.77365e-09
-9.70877e-11
-2.67533e-09
-9.83209e-11
-2.57772e-09
-9.76104e-11
-2.48245e-09
-9.52703e-11
-2.39084e-09
-9.16141e-11
-2.30389e-09
-8.69424e-11
-2.22236e-09
-8.15333e-11
-2.14672e-09
-7.56361e-11
-2.07726e-09
-6.9467e-11
-2.01405e-09
-6.32089e-11
-1.95704e-09
-5.7011e-11
-1.90605e-09
-5.09916e-11
-1.86081e-09
-4.52404e-11
-1.82098e-09
-3.9822e-11
-1.7862e-09
-3.478e-11
-1.75606e-09
-3.01396e-11
-1.73015e-09
-2.59122e-11
-1.70805e-09
-2.20973e-11
-1.68937e-09
-1.8686e-11
-1.67371e-09
-1.56627e-11
-1.6607e-09
-1.30076e-11
-1.65e-09
-1.06974e-11
-1.64129e-09
-8.70709e-12
-1.63428e-09
-7.0107e-12
-1.6287e-09
-5.58195e-12
-1.62431e-09
-4.39521e-12
-1.62088e-09
-3.42343e-12
-1.61824e-09
-2.64081e-12
-1.61622e-09
-2.02226e-12
-1.61468e-09
-1.54204e-12
-1.6135e-09
-1.1739e-12
-1.61261e-09
-8.9051e-13
-1.61195e-09
-6.63313e-13
-1.61149e-09
-4.61007e-13
-1.61124e-09
-2.47904e-13
-1.61122e-09
-1.7546e-14
-1.61149e-09
2.70917e-13
-1.61211e-09
6.11369e-13
-1.61309e-09
9.81781e-13
-1.61443e-09
1.34771e-12
-1.61604e-09
1.60796e-12
-1.61766e-09
1.61751e-12
-1.61884e-09
1.17828e-12
-1.61891e-09
6.70434e-14
-1.61674e-09
-2.16584e-12
-1.61099e-09
-5.74844e-12
-1.59973e-09
-1.12577e-11
-1.58034e-09
-1.93917e-11
-1.54876e-09
-3.15851e-11
-1.49731e-09
-5.1445e-11
-1.41599e-09
-8.13227e-11
-1.7876e-10
-1.23723e-09
1.26786e-10
-1.92701e-10
4.03053e-10
-4.43592e-10
7.48681e-10
-5.75613e-10
1.09894e-09
-6.0501e-10
1.39987e-09
-5.49546e-10
1.60763e-09
-4.26288e-10
1.6876e-09
-2.50506e-10
1.61304e-09
-3.53024e-11
1.36384e-09
2.08552e-10
9.25304e-10
4.72546e-10
2.86727e-10
7.50279e-10
-5.59548e-10
1.03727e-09
-1.61921e-09
1.33068e-09
-2.89677e-09
1.62902e-09
-4.39617e-09
1.93181e-09
-6.12119e-09
2.23928e-09
-8.07563e-09
2.55197e-09
-1.02633e-08
2.8704e-09
-1.26876e-08
3.19477e-09
-1.53514e-08
3.52463e-09
-1.82561e-08
3.85873e-09
-2.14011e-08
4.19479e-09
-2.4783e-08
4.52944e-09
-2.8395e-08
4.85823e-09
-3.22259e-08
5.17565e-09
-3.62597e-08
5.47524e-09
-4.04752e-08
5.74974e-09
-4.48455e-08
5.99127e-09
-4.93376e-08
6.19161e-09
-5.39129e-08
6.34236e-09
-5.85273e-08
6.43532e-09
-6.31314e-08
6.46268e-09
-6.76715e-08
6.4174e-09
-7.20901e-08
6.29343e-09
-7.63274e-08
6.08602e-09
-8.03221e-08
5.79196e-09
-8.40129e-08
5.40975e-09
-8.73396e-08
4.93976e-09
-9.02447e-08
4.3843e-09
-9.26746e-08
3.74764e-09
-9.45811e-08
3.03595e-09
-9.59217e-08
2.25715e-09
-9.66616e-08
1.42072e-09
-9.67736e-08
5.37613e-10
-9.62386e-08
-3.80429e-10
-9.50475e-08
-1.32107e-09
-9.31992e-08
-2.27012e-09
-9.07015e-08
-3.21471e-09
-8.75705e-08
-4.14219e-09
-8.38296e-08
-5.04063e-09
-7.95091e-08
-5.89908e-09
-7.4645e-08
-6.70791e-09
-6.92781e-08
-7.459e-09
-6.34529e-08
-8.1458e-09
-5.72166e-08
-8.76349e-09
-5.06181e-08
-9.30884e-09
-4.37066e-08
-9.78017e-09
-3.65318e-08
-1.01771e-08
-2.91422e-08
-1.05001e-08
-2.15857e-08
-1.07506e-08
-1.39088e-08
-1.09299e-08
-6.15718e-09
-1.10394e-08
1.6239e-09
-1.10795e-08
9.388e-09
-1.10493e-08
1.70879e-08
-1.09473e-08
2.46752e-08
-1.07716e-08
3.2099e-08
-1.05188e-08
3.9305e-08
-1.01842e-08
4.62348e-08
-9.76219e-09
5.28255e-08
-9.24679e-09
5.90098e-08
-8.63224e-09
6.47168e-08
-7.91378e-09
6.98722e-08
-7.08842e-09
7.44007e-08
-6.15575e-09
7.82277e-08
-5.11882e-09
8.1282e-08
-3.98485e-09
8.34991e-08
-2.76598e-09
8.48252e-08
-1.47975e-09
8.52165e-08
-1.44029e-10
8.46578e-08
1.20003e-09
8.31459e-08
2.53225e-09
8.07067e-08
3.81194e-09
7.73921e-08
5.00202e-09
7.32814e-08
6.06531e-09
6.84803e-08
6.96726e-09
6.31176e-08
7.6787e-09
5.73408e-08
8.17841e-09
5.13084e-08
8.45521e-09
4.51825e-08
8.50925e-09
3.91196e-08
8.35238e-09
3.32625e-08
8.00713e-09
2.77333e-08
7.50474e-09
2.26281e-08
6.8821e-09
1.80145e-08
6.17849e-09
1.39317e-08
5.43228e-09
1.03923e-08
4.67845e-09
7.3854e-09
3.94704e-09
4.88104e-09
3.26262e-09
2.83379e-09
2.64444e-09
1.1869e-09
2.10671e-09
-1.2382e-10
1.6587e-09
-1.16592e-09
1.30432e-09
-2.00587e-09
1.04165e-09
-2.70478e-09
8.62947e-10
-3.31477e-09
7.55523e-10
-3.87653e-09
7.0324e-10
-4.41825e-09
6.88601e-10
-4.95615e-09
6.94858e-10
-5.49611e-09
7.07677e-10
-6.03603e-09
7.16086e-10
-6.5684e-09
7.12726e-10
-7.08265e-09
6.93551e-10
-7.5671e-09
6.57231e-10
-8.01047e-09
6.04454e-10
-8.40286e-09
5.37284e-10
-8.73639e-09
4.58616e-10
-9.00553e-09
3.71774e-10
-9.20718e-09
2.80197e-10
-9.34062e-09
1.87226e-10
-9.40733e-09
9.59345e-11
-9.41065e-09
9.07668e-12
-9.35559e-09
-7.12758e-11
-9.24827e-09
-1.43205e-10
-9.09573e-09
-2.05582e-10
-8.90546e-09
-2.57689e-10
-8.68514e-09
-2.99278e-10
-8.44226e-09
-3.30514e-10
-8.18397e-09
-3.51903e-10
-7.91684e-09
-3.64218e-10
-7.64674e-09
-3.68421e-10
-7.37876e-09
-3.65592e-10
-7.11717e-09
-3.56862e-10
-6.86542e-09
-3.43359e-10
-6.6262e-09
-3.2616e-10
-6.40147e-09
-3.06267e-10
-6.19253e-09
-2.84574e-10
-6.00014e-09
-2.61862e-10
-5.82455e-09
-2.38791e-10
-5.66566e-09
-2.15905e-10
-5.52302e-09
-1.93635e-10
-5.39595e-09
-1.72312e-10
-5.28359e-09
-1.52177e-10
-5.18498e-09
-1.33395e-10
-5.09905e-09
-1.16064e-10
-5.02473e-09
-1.00233e-10
-4.96092e-09
-8.59052e-11
-4.90655e-09
-7.3055e-11
-4.86059e-09
-6.16303e-11
-4.82203e-09
-5.15621e-11
-4.78996e-09
-4.27693e-11
-4.7635e-09
-3.51632e-11
-4.74186e-09
-2.86509e-11
-4.72431e-09
-2.31372e-11
-4.71018e-09
-1.85275e-11
-4.69887e-09
-1.47263e-11
-4.68987e-09
-1.164e-11
-4.68272e-09
-9.17486e-12
-4.67703e-09
-7.23684e-12
-4.67247e-09
-5.72943e-12
-4.66881e-09
-4.55299e-12
-4.66587e-09
-3.604e-12
-4.66355e-09
-2.77586e-12
-4.66184e-09
-1.96537e-12
-4.66076e-09
-1.09125e-12
-4.66041e-09
-8.19293e-14
-4.66085e-09
1.05655e-12
-4.66211e-09
2.24233e-12
-4.66405e-09
3.28452e-12
-4.66626e-09
3.81631e-12
-4.66793e-09
3.29208e-12
-4.66773e-09
9.76378e-13
-4.66356e-09
-4.10408e-12
-4.65259e-09
-1.31364e-11
-4.63085e-09
-2.7493e-11
-4.59316e-09
-4.8943e-11
-4.53266e-09
-7.98952e-11
-4.43965e-09
-1.2459e-10
-4.29995e-09
-1.91145e-10
-4.08809e-09
-2.93187e-10
-4.98894e-10
-3.76795e-09
1.0761e-10
-3.00311e-10
3.14742e-10
-6.50724e-10
5.31113e-10
-7.91985e-10
6.85434e-10
-7.59331e-10
7.19548e-10
-5.8366e-10
5.85868e-10
-2.92607e-10
2.45625e-10
8.97365e-11
-3.32474e-10
5.42797e-10
-1.17355e-09
1.04963e-09
-2.29761e-09
1.59661e-09
-3.72058e-09
2.17325e-09
-5.4552e-09
2.77189e-09
-7.51176e-09
3.38724e-09
-9.89871e-09
4.01596e-09
-1.2623e-08
4.65611e-09
-1.56903e-08
5.30657e-09
-1.91048e-08
5.96651e-09
-2.28692e-08
6.63474e-09
-2.69836e-08
7.30918e-09
-3.14454e-08
7.98644e-09
-3.62481e-08
8.66142e-09
-4.13804e-08
9.32712e-09
-4.68255e-08
9.97454e-09
-5.25601e-08
1.05928e-08
-5.85536e-08
1.11692e-08
-6.47682e-08
1.16898e-08
-7.11581e-08
1.21397e-08
-7.767e-08
1.25032e-08
-8.42433e-08
1.27649e-08
-9.08109e-08
1.291e-08
-9.73002e-08
1.29246e-08
-1.03634e-07
1.27968e-08
-1.09734e-07
1.25168e-08
-1.15518e-07
1.20772e-08
-1.20905e-07
1.14739e-08
-1.25819e-07
1.07058e-08
-1.30185e-07
9.77554e-09
-1.33934e-07
8.68879e-09
-1.37005e-07
7.45475e-09
-1.39343e-07
6.08573e-09
-1.40904e-07
4.59689e-09
-1.41652e-07
3.00585e-09
-1.41564e-07
1.33228e-09
-1.40624e-07
-4.02381e-10
-1.38828e-07
-2.17578e-09
-1.36185e-07
-3.9647e-09
-1.32708e-07
-5.74649e-09
-1.28424e-07
-7.49935e-09
-1.23363e-07
-9.20263e-09
-1.17567e-07
-1.08374e-08
-1.11079e-07
-1.23867e-08
-1.03951e-07
-1.3836e-08
-9.62364e-08
-1.51736e-08
-8.7992e-08
-1.63902e-08
-7.92758e-08
-1.74796e-08
-7.01464e-08
-1.84382e-08
-6.06618e-08
-1.92648e-08
-5.08786e-08
-1.99602e-08
-4.08522e-08
-2.05266e-08
-3.06356e-08
-2.09672e-08
-2.028e-08
-2.12854e-08
-9.83535e-09
-2.14841e-08
6.49804e-10
-2.15646e-08
1.11261e-08
-2.15256e-08
2.15429e-08
-2.13641e-08
3.18475e-08
-2.10762e-08
4.19839e-08
-2.06552e-08
5.18914e-08
-2.00917e-08
6.15036e-08
-1.93744e-08
7.07476e-08
-1.84908e-08
7.95437e-08
-1.74284e-08
8.78054e-08
-1.61754e-08
9.54397e-08
-1.47228e-08
1.02349e-07
-1.30648e-08
1.08431e-07
-1.12013e-08
1.13585e-07
-9.13876e-09
1.17711e-07
-6.8915e-09
1.20714e-07
-4.48307e-09
1.22517e-07
-1.94672e-09
1.23046e-07
6.70563e-10
1.22263e-07
3.31572e-09
1.20151e-07
5.92358e-09
1.1673e-07
8.42292e-09
1.12057e-07
1.07387e-08
1.06228e-07
1.2796e-08
9.9382e-08
1.45248e-08
9.16945e-08
1.5866e-08
8.33729e-08
1.67768e-08
7.46468e-08
1.72354e-08
6.5755e-08
1.72442e-08
5.6932e-08
1.68301e-08
4.8394e-08
1.60428e-08
4.03265e-08
1.49495e-08
3.28761e-08
1.36289e-08
2.6145e-08
1.21633e-08
2.0191e-08
1.06325e-08
1.50297e-08
9.10835e-09
1.06401e-08
7.65216e-09
6.97111e-09
6.31346e-09
3.94813e-09
5.12969e-09
1.48082e-09
4.12601e-09
-5.29565e-10
3.31471e-09
-2.1826e-09
2.69469e-09
-3.57141e-09
2.25175e-09
-4.77669e-09
1.96081e-09
-5.86283e-09
1.78938e-09
-6.87614e-09
1.70191e-09
-7.84535e-09
1.66406e-09
-8.78384e-09
1.64617e-09
-9.69299e-09
1.62524e-09
-1.05658e-08
1.58551e-09
-1.13902e-08
1.518e-09
-1.21523e-08
1.41932e-09
-1.28382e-08
1.29033e-09
-1.34357e-08
1.13483e-09
-1.39355e-08
9.58422e-10
-1.43314e-08
7.67675e-10
-1.46207e-08
5.6944e-10
-1.48038e-08
3.7037e-10
-1.48845e-08
1.76575e-10
-1.48688e-08
-6.58251e-12
-1.47652e-08
-1.74858e-10
-1.45836e-08
-3.24795e-10
-1.43351e-08
-4.54174e-10
-1.4031e-08
-5.61732e-10
-1.36831e-08
-6.47144e-10
-1.33028e-08
-7.10896e-10
-1.29005e-08
-7.54144e-10
-1.24862e-08
-7.78563e-10
-1.20684e-08
-7.86193e-10
-1.16547e-08
-7.79292e-10
-1.12514e-08
-7.60212e-10
-1.08634e-08
-7.31285e-10
-1.04949e-08
-6.94737e-10
-1.01485e-08
-6.52625e-10
-9.82627e-09
-6.06796e-10
-9.52927e-09
-5.58857e-10
-9.25789e-09
-5.10172e-10
-9.01193e-09
-4.61863e-10
-8.79074e-09
-4.14826e-10
-8.59331e-09
-3.69747e-10
-8.41835e-09
-3.27133e-10
-8.26442e-09
-2.87329e-10
-8.12993e-09
-2.50548e-10
-8.01327e-09
-2.16895e-10
-7.91279e-09
-1.86387e-10
-7.82687e-09
-1.58974e-10
-7.75395e-09
-1.34552e-10
-7.69253e-09
-1.12984e-10
-7.64119e-09
-9.41049e-11
-7.59862e-09
-7.77317e-11
-7.5636e-09
-6.36731e-11
-7.535e-09
-5.17327e-11
-7.51182e-09
-4.17126e-11
-7.49313e-09
-3.34155e-11
-7.47812e-09
-2.66452e-11
-7.46609e-09
-2.12061e-11
-7.45643e-09
-1.69011e-11
-7.44863e-09
-1.35293e-11
-7.4423e-09
-1.08843e-11
-7.43715e-09
-8.75357e-12
-7.433e-09
-6.92338e-12
-7.42977e-09
-5.19073e-12
-7.42748e-09
-3.38677e-12
-7.42616e-09
-1.40269e-12
-7.42584e-09
7.37929e-13
-7.42645e-09
2.84815e-12
-7.42763e-09
4.47093e-12
-7.42865e-09
4.8301e-12
-7.42812e-09
2.76588e-12
-7.42385e-09
-3.29138e-12
-7.41261e-09
-1.53472e-11
-7.38993e-09
-3.58163e-11
-7.34986e-09
-6.75629e-11
-7.28475e-09
-1.14054e-10
-7.1848e-09
-1.7984e-10
-7.03741e-09
-2.71985e-10
-6.82597e-09
-4.0258e-10
-6.52594e-09
-5.93219e-10
-8.85185e-10
-6.13965e-09
3.53208e-11
-3.35632e-10
4.76293e-11
-6.63033e-10
-3.96689e-11
-7.04686e-10
-2.88068e-10
-5.10932e-10
-7.47693e-10
-1.24035e-10
-1.45985e-09
4.19553e-10
-2.45894e-09
1.08883e-09
-3.77386e-09
1.85771e-09
-5.42895e-09
2.70472e-09
-7.44492e-09
3.61257e-09
-9.83937e-09
4.56771e-09
-1.26272e-08
5.55974e-09
-1.58209e-08
6.58092e-09
-1.94304e-08
7.62546e-09
-2.34632e-08
8.68888e-09
-2.79238e-08
9.7672e-09
-3.28134e-08
1.08562e-08
-3.81292e-08
1.19505e-08
-4.38633e-08
1.30433e-08
-5.00021e-08
1.41252e-08
-5.65252e-08
1.51845e-08
-6.34044e-08
1.62064e-08
-7.06035e-08
1.71736e-08
-7.80772e-08
1.80665e-08
-8.57714e-08
1.88634e-08
-9.36232e-08
1.95417e-08
-1.01562e-07
2.00781e-08
-1.09509e-07
2.045e-08
-1.1738e-07
2.0636e-08
-1.25086e-07
2.06167e-08
-1.32538e-07
2.03759e-08
-1.39642e-07
1.99009e-08
-1.46308e-07
1.91832e-08
-1.5245e-07
1.82188e-08
-1.57984e-07
1.70084e-08
-1.62836e-07
1.55577e-08
-1.66938e-07
1.38771e-08
-1.7023e-07
1.19814e-08
-1.72665e-07
9.88949e-09
-1.74203e-07
7.62413e-09
-1.74817e-07
5.21102e-09
-1.7449e-07
2.67842e-09
-1.73214e-07
5.675e-11
-1.70995e-07
-2.62224e-09
-1.67844e-07
-5.32644e-09
-1.63784e-07
-8.02445e-09
-1.58845e-07
-1.06857e-08
-1.53063e-07
-1.3281e-08
-1.46483e-07
-1.57832e-08
-1.39152e-07
-1.81679e-08
-1.31125e-07
-2.04135e-08
-1.22459e-07
-2.25021e-08
-1.13214e-07
-2.44193e-08
-1.03449e-07
-2.61548e-08
-9.32264e-08
-2.77022e-08
-8.26062e-08
-2.90585e-08
-7.16468e-08
-3.02242e-08
-6.04046e-08
-3.12025e-08
-4.89327e-08
-3.19984e-08
-3.72818e-08
-3.26181e-08
-2.54995e-08
-3.30678e-08
-1.3631e-08
-3.33525e-08
-1.72029e-09
-3.34754e-08
1.01903e-08
-3.34361e-08
2.2057e-08
-3.32307e-08
3.38327e-08
-3.2852e-08
4.5467e-08
-3.22896e-08
5.69044e-08
-3.15291e-08
6.80828e-08
-3.05527e-08
7.89323e-08
-2.93404e-08
8.9375e-08
-2.7871e-08
9.93237e-08
-2.61241e-08
1.08683e-07
-2.40819e-08
1.17349e-07
-2.17306e-08
1.2521e-07
-1.90631e-08
1.32152e-07
-1.60805e-08
1.38055e-07
-1.27945e-08
1.42801e-07
-9.22916e-09
1.46277e-07
-5.42247e-09
1.48376e-07
-1.42805e-09
1.49008e-07
2.68335e-09
1.48107e-07
6.82468e-09
1.45636e-07
1.08935e-08
1.41599e-07
1.47765e-08
1.36041e-07
1.83532e-08
1.29063e-07
2.15029e-08
1.20816e-07
2.41131e-08
1.11504e-07
2.60889e-08
1.01376e-07
2.73631e-08
9.07161e-08
2.79043e-08
7.98241e-08
2.77221e-08
6.89989e-08
2.6868e-08
5.85174e-08
2.5431e-08
4.86177e-08
2.35286e-08
3.94859e-08
2.12951e-08
3.12493e-08
1.88691e-08
2.39754e-08
1.63823e-08
1.7676e-08
1.39516e-08
1.23146e-08
1.16748e-08
7.81642e-09