/*--------------------------------*- C++ -*----------------------------------*\
  =========                 |
  \\      /  F ield         | OpenFOAM: The Open Source CFD Toolbox
   \\    /   O peration     | Website:  https://openfoam.org
    \\  /    A nd           | Version:  8
     \\/     M anipulation  |
\*---------------------------------------------------------------------------*/
FoamFile
{
    version     2.0;
    format      ascii;
    class       volVectorField;
    location    "0.72";
    object      U;
}
// * * * * * * * * * * * * * * * * * * * * * * * * * * * * * * * * * * * * * //

dimensions      [0 1 -1 0 0 0 0];

internalField   nonuniform List<vector> 
12225
(
(-8.88368e-06 1.20391e-06 0)
(-3.64647e-06 -7.02691e-07 0)
(3.59034e-05 -1.76211e-06 0)
(9.97809e-05 -2.70623e-06 0)
(0.000183939 -3.53566e-06 0)
(0.000285133 -4.34826e-06 0)
(0.000401688 -5.17675e-06 0)
(0.000532533 -6.05599e-06 0)
(0.000677113 -7.02369e-06 0)
(0.00083539 -8.14302e-06 0)
(0.00100805 -9.52515e-06 0)
(0.00119682 -1.13672e-05 0)
(0.00140482 -1.40319e-05 0)
(0.0016363 -1.81162e-05 0)
(0.00189396 -2.35395e-05 0)
(0.00217303 -2.38898e-05 0)
(0.00239356 -3.64392e-05 0)
(0.0004229 0.00138141 0)
(-1.80956e-05 2.98307e-06 0)
(8.32141e-06 -1.08351e-05 0)
(0.000127893 -2.44637e-05 0)
(0.000317063 -3.64147e-05 0)
(0.000564573 -4.7338e-05 0)
(0.000861258 -5.78696e-05 0)
(0.0012018 -6.84118e-05 0)
(0.00158241 -7.92411e-05 0)
(0.00200042 -9.06247e-05 0)
(0.00245403 -0.00010293 0)
(0.00294239 -0.000116702 0)
(0.00346527 -0.000132662 0)
(0.00402162 -0.000151416 0)
(0.0046034 -0.000171798 0)
(0.00517702 -0.000182307 0)
(0.00561885 -0.00011768 0)
(0.0055682 0.000308105 0)
(0.00173094 0.00343132 0)
(-2.0839e-05 3.27221e-06 0)
(3.79505e-05 -3.44714e-05 0)
(0.000241313 -7.37528e-05 0)
(0.000556685 -0.00010865 0)
(0.00096651 -0.000140772 0)
(0.00145611 -0.000171638 0)
(0.00201614 -0.000202273 0)
(0.00263936 -0.0002333 0)
(0.00331973 -0.000265211 0)
(0.00405175 -0.000298538 0)
(0.00482966 -0.000333806 0)
(0.00564553 -0.000370971 0)
(0.00648397 -0.000407279 0)
(0.00730693 -0.000429987 0)
(0.00801542 -0.000390016 0)
(0.00833511 -0.000104838 0)
(0.00767693 0.00108423 0)
(0.00312293 0.0059078 0)
(-1.87156e-05 -6.99312e-07 0)
(8.27804e-05 -7.57601e-05 0)
(0.000373546 -0.000155156 0)
(0.000814954 -0.000226499 0)
(0.00138409 -0.00029246 0)
(0.00206122 -0.000355659 0)
(0.00283263 -0.000417894 0)
(0.00368679 -0.000480096 0)
(0.00461298 -0.000542736 0)
(0.00559976 -0.00060594 0)
(0.00663301 -0.000668989 0)
(0.00769162 -0.000728372 0)
(0.00873761 -0.000771983 0)
(0.00969242 -0.000762484 0)
(0.0103862 -0.000587658 0)
(0.0104352 8.65166e-05 0)
(0.00918687 0.00224088 0)
(0.00457927 0.00854978 0)
(-1.30915e-05 -1.21202e-05 0)
(0.00013995 -0.000138609 0)
(0.000520953 -0.000272656 0)
(0.00108674 -0.000394339 0)
(0.00180982 -0.000507214 0)
(0.00266588 -0.000615041 0)
(0.00363652 -0.000720337 0)
(0.00470516 -0.000824066 0)
(0.00585494 -0.000926088 0)
(0.0070664 -0.00102499 0)
(0.00831395 -0.00111669 0)
(0.00955913 -0.00119018 0)
(0.0107368 -0.00121657 0)
(0.0117269 -0.00112132 0)
(0.0123039 -0.000713748 0)
(0.0120436 0.000484402 0)
(0.0103688 0.00363215 0)
(0.0060641 0.0110882 0)
(-5.10494e-06 -3.39889e-05 0)
(0.000206182 -0.000227273 0)
(0.000678765 -0.000430659 0)
(0.00136526 -0.000616832 0)
(0.00223412 -0.000789946 0)
(0.0032569 -0.000954761 0)
(0.00441027 -0.00111423 0)
(0.00567185 -0.0012688 0)
(0.00701749 -0.00141675 0)
(0.0084179 -0.00155346 0)
(0.00983385 -0.00166863 0)
(0.0112075 -0.00173912 0)
(0.0124466 -0.0017121 0)
(0.0133975 -0.00146748 0)
(0.0138059 -0.000735489 0)
(0.0132718 0.00106843 0)
(0.01137 0.00513659 0)
(0.00754435 0.0134115 0)
(4.26926e-06 -6.90516e-05 0)
(0.000277809 -0.000346084 0)
(0.000841104 -0.000633663 0)
(0.00164207 -0.000898522 0)
(0.0026453 -0.00114517 0)
(0.00381861 -0.00137906 0)
(0.00513364 -0.00160307 0)
(0.00656169 -0.0018163 0)
(0.0080704 -0.00201411 0)
(0.00961963 -0.00218657 0)
(0.0111557 -0.00231404 0)
(0.0126019 -0.00235676 0)
(0.0138437 -0.00223291 0)
(0.0147075 -0.0017749 0)
(0.0149403 -0.000646647 0)
(0.0142111 0.00179198 0)
(0.0122677 0.00666053 0)
(0.00899697 0.0154812 0)
(1.41865e-05 -0.00011972 0)
(0.000350826 -0.000499032 0)
(0.00100103 -0.00088566 0)
(0.00190706 -0.00124307 0)
(0.00302958 -0.00157604 0)
(0.00433302 -0.00189034 0)
(0.00578402 -0.00218799 0)
(0.00734737 -0.00246567 0)
(0.00898219 -0.00271419 0)
(0.0106374 -0.00291607 0)
(0.0122456 -0.0030393 0)
(0.0137146 -0.00302418 0)
(0.0149156 -0.00275814 0)
(0.0156713 -0.00203084 0)
(0.0157556 -0.000461554 0)
(0.014929 0.00259559 0)
(0.0130952 0.00812481 0)
(0.0104015 0.0172716 0)
(2.39155e-05 -0.000187884 0)
(0.000420994 -0.000689344 0)
(0.00115068 -0.0011896 0)
(0.0021486 -0.00165263 0)
(0.00337125 -0.0020837 0)
(0.00478001 -0.00248839 0)
(0.00633684 -0.00286699 0)
(0.00800022 -0.00321244 0)
(0.00972115 -0.0035093 0)
(0.0114386 -0.00373035 0)
(0.0130742 -0.00382891 0)
(0.0145252 -0.0037239 0)
(0.0156586 -0.00327386 0)
(0.0163088 -0.00223595 0)
(0.0162937 -0.000210056 0)
(0.0154679 0.00341472 0)
(0.0138563 0.00946047 0)
(0.0117345 0.0187589 0)
(3.28118e-05 -0.000274675 0)
(0.000483937 -0.000918968 0)
(0.00128148 -0.00154678 0)
(0.0023538 -0.00212722 0)
(0.003653 -0.00266657 0)
(0.00513785 -0.0031698 0)
(0.0067662 -0.00363441 0)
(0.00849099 -0.0040483 0)
(0.0102563 -0.00438811 0)
(0.0119934 -0.00461518 0)
(0.0136166 -0.00466696 0)
(0.0150195 -0.00444174 0)
(0.0160744 -0.00377444 0)
(0.0166394 -0.00240328 0)
(0.0165843 6.71038e-05 0)
(0.0158471 0.00418458 0)
(0.0145346 0.0106076 0)
(0.0129662 0.01992 0)
(4.03084e-05 -0.000380355 0)
(0.000535275 -0.00118795 0)
(0.0013844 -0.00195614 0)
(0.00250885 -0.00266395 0)
(0.0038564 -0.00331963 0)
(0.00538376 -0.00392717 0)
(0.00704562 -0.00448038 0)
(0.00879076 -0.00496078 0)
(0.0105584 -0.00533582 0)
(0.0122751 -0.00555441 0)
(0.0138527 -0.00553836 0)
(0.0151878 -0.00516815 0)
(0.0161666 -0.00426281 0)
(0.0166777 -0.00255599 0)
(0.0166425 0.000322998 0)
(0.0160648 0.00484367 0)
(0.0150987 0.0115143 0)
(0.0140594 0.0207308 0)
(4.55774e-05 -0.000493936 0)
(0.000567976 -0.00146824 0)
(0.00144498 -0.00237523 0)
(0.00259232 -0.00320678 0)
(0.00395413 -0.00397406 0)
(0.00548601 -0.00468012 0)
(0.00714103 -0.0053146 0)
(0.00886587 -0.00585236 0)
(0.0105977 -0.00625165 0)
(0.0122624 -0.00644997 0)
(0.013774 -0.00635622 0)
(0.0150375 -0.00583873 0)
(0.0159568 -0.00470986 0)
(0.0164508 -0.00271106 0)
(0.0164825 0.000493072 0)
(0.0160986 0.0052962 0)
(0.0154719 0.0120878 0)
(0.0148922 0.0211354 0)
(4.9607e-05 -0.000618974 0)
(0.000585737 -0.00177104 0)
(0.00147027 -0.00282198 0)
(0.00261569 -0.00377982 0)
(0.00396298 -0.00465966 0)
(0.0054675 -0.00546366 0)
(0.00708207 -0.00617699 0)
(0.00875315 -0.0067674 0)
(0.0104184 -0.0071839 0)
(0.0120058 -0.00735336 0)
(0.0134355 -0.00717398 0)
(0.0146247 -0.00650625 0)
(0.0154972 -0.00516264 0)
(0.0160011 -0.00290064 0)
(0.0161333 0.000573666 0)
(0.0159686 0.00558021 0)
(0.0156825 0.0124081 0)
(0.0155317 0.0212281 0)
(5.22366e-05 -0.000773487 0)
(0.00058361 -0.0021418 0)
(0.00144637 -0.00336158 0)
(0.00255296 -0.00446484 0)
(0.00384234 -0.00547255 0)
(0.00527102 -0.00638603 0)
(0.00679373 -0.00718516 0)
(0.00835933 -0.00782948 0)
(0.00990932 -0.00825799 0)
(0.0113784 -0.00838705 0)
(0.0126976 -0.00810624 0)
(0.0138009 -0.00727295 0)
(0.0146362 -0.00570778 0)
(0.0151805 -0.0031945 0)
(0.015459 0.000509778 0)
(0.0155634 0.0056481 0)
(0.0156583 0.0124178 0)
(0.0159611 0.0209118 0)
(5.17896e-05 -0.000955836 0)
(0.000548131 -0.00257671 0)
(0.00134223 -0.00398667 0)
(0.00235197 -0.00525004 0)
(0.00351775 -0.00639651 0)
(0.00479977 -0.00742692 0)
(0.00615792 -0.00831558 0)
(0.00754752 -0.00901346 0)
(0.00891864 -0.0094498 0)
(0.0102178 -0.00953224 0)
(0.0113922 -0.00914565 0)
(0.0123968 -0.00815091 0)
(0.0132043 -0.00638546 0)
(0.0138171 -0.00366841 0)
(0.0142801 0.000186681 0)
(0.0146886 0.00534868 0)
(0.0151868 0.0119366 0)
(0.0159501 0.0199847 0)
(4.60825e-05 -0.00115493 0)
(0.000462311 -0.00304898 0)
(0.00111896 -0.00465831 0)
(0.00194744 -0.00608534 0)
(0.00289636 -0.00737175 0)
(0.00393377 -0.008519 0)
(0.00502924 -0.00949656 0)
(0.0061497 -0.0102478 0)
(0.00725939 -0.0106942 0)
(0.00832212 -0.0107383 0)
(0.00930552 -0.0102656 0)
(0.0101873 -0.00914769 0)
(0.0109631 -0.00724625 0)
(0.0116544 -0.00442094 0)
(0.0123147 -0.00054147 0)
(0.0130318 0.00449542 0)
(0.0139234 0.0107467 0)
(0.0151239 0.0182049 0)
(3.27276e-05 -0.00134168 0)
(0.000307899 -0.00348953 0)
(0.000735286 -0.00527934 0)
(0.00127029 -0.00685123 0)
(0.00187981 -0.00826104 0)
(0.00254562 -0.00951269 0)
(0.00325217 -0.0105729 0)
(0.00398348 -0.0113806 0)
(0.00472333 -0.0118532 0)
(0.00545728 -0.0118932 0)
(0.00617595 -0.0113927 0)
(0.00687941 -0.0102394 0)
(0.00758193 -0.00832312 0)
(0.00831613 -0.0055436 0)
(0.00913511 -0.0018201 0)
(0.0101111 0.00289824 0)
(0.0113326 0.00862301 0)
(0.0128971 0.0153199 0)
(9.60667e-06 -0.00145721 0)
(7.20363e-05 -0.00376029 0)
(0.000163922 -0.00565782 0)
(0.000275631 -0.00731576 0)
(0.000403558 -0.00880201 0)
(0.000549285 -0.0101248 0)
(0.000716526 -0.0112519 0)
(0.00091041 -0.0121226 0)
(0.00113781 -0.0126562 0)
(0.00140838 -0.0127604 0)
(0.00173618 -0.0123384 0)
(0.00214167 -0.0112964 0)
(0.00265358 -0.00955042 0)
(0.00331002 -0.0070337 0)
(0.0041583 -0.00370269 0)
(0.00525294 0.00045726 0)
(0.00665364 0.00542811 0)
(0.0084263 0.0111607 0)
(-2.46467e-05 -0.00140272 0)
(-0.000235226 -0.00363066 0)
(-0.000567224 -0.00547249 0)
(-0.000988027 -0.00708932 0)
(-0.00146539 -0.00855067 0)
(-0.00197555 -0.00986915 0)
(-0.00249492 -0.0110186 0)
(-0.00299707 -0.0119456 0)
(-0.00345229 -0.0125787 0)
(-0.00382766 -0.0128369 0)
(-0.00408717 -0.0126377 0)
(-0.00419206 -0.0119046 0)
(-0.00410128 -0.0105736 0)
(-0.00377245 -0.00859938 0)
(-0.00316327 -0.00595889 0)
(-0.00223304 -0.002654 0)
(-0.000942518 0.00128824 0)
(0.000746991 0.00581528 0)
(-4.82867e-05 -0.00115247 0)
(-0.000465118 -0.00303315 0)
(-0.00112315 -0.00462246 0)
(-0.00196091 -0.00603888 0)
(-0.00292382 -0.00733762 0)
(-0.00397617 -0.00853213 0)
(-0.00508356 -0.00960462 0)
(-0.00620749 -0.0105139 0)
(-0.00730458 -0.0112026 0)
(-0.00832721 -0.0116043 0)
(-0.00922467 -0.0116509 0)
(-0.00994483 -0.0112789 0)
(-0.0104361 -0.0104357 0)
(-0.0106494 -0.00908426 0)
(-0.0105405 -0.00720644 0)
(-0.0100718 -0.00480459 0)
(-0.00921107 -0.00190167 0)
(-0.00792784 0.00145996 0)
(-5.73141e-05 -0.000872141 0)
(-0.000568435 -0.00236804 0)
(-0.00138414 -0.00367208 0)
(-0.00243246 -0.00485163 0)
(-0.00365223 -0.00594493 0)
(-0.00500502 -0.00696493 0)
(-0.00645373 -0.00790133 0)
(-0.00795659 -0.00872463 0)
(-0.00946613 -0.00939121 0)
(-0.0109297 -0.00984886 0)
(-0.0122907 -0.0100425 0)
(-0.0134911 -0.00992001 0)
(-0.0144734 -0.00943689 0)
(-0.0151836 -0.0085608 0)
(-0.015574 -0.00727419 0)
(-0.0156049 -0.00557574 0)
(-0.0152441 -0.00348047 0)
(-0.0144641 -0.00101911 0)
(-5.5599e-05 -0.000602829 0)
(-0.000579791 -0.00172368 0)
(-0.00143401 -0.00274013 0)
(-0.00254756 -0.00367162 0)
(-0.00386166 -0.00454131 0)
(-0.00533958 -0.00536133 0)
(-0.00694561 -0.00612767 0)
(-0.00863966 -0.00682125 0)
(-0.0103759 -0.00741105 0)
(-0.0121027 -0.00785814 0)
(-0.0137639 -0.00812013 0)
(-0.0153007 -0.00815553 0)
(-0.0166541 -0.00792785 0)
(-0.0177679 -0.007409 0)
(-0.0185918 -0.00658177 0)
(-0.0190831 -0.00544107 0)
(-0.0192075 -0.00399437 0)
(-0.0189369 -0.00226188 0)
(-4.61759e-05 -0.000379288 0)
(-0.000524755 -0.00117707 0)
(-0.00133133 -0.00193381 0)
(-0.00240314 -0.00263346 0)
(-0.00368792 -0.00328862 0)
(-0.00515212 -0.00391057 0)
(-0.00676331 -0.00449981 0)
(-0.00848579 -0.00504534 0)
(-0.0102787 -0.00552649 0)
(-0.0120956 -0.00591582 0)
(-0.0138849 -0.00618226 0)
(-0.0155913 -0.00629444 0)
(-0.0171584 -0.00622375 0)
(-0.0185314 -0.00594703 0)
(-0.0196593 -0.00544853 0)
(-0.0204982 -0.00472106 0)
(-0.0210117 -0.00376652 0)
(-0.0211703 -0.00259659 0)
(-3.2184e-05 -0.000213139 0)
(-0.000430219 -0.000754078 0)
(-0.00113647 -0.00129178 0)
(-0.00209818 -0.00179037 0)
(-0.00327035 -0.00225664 0)
(-0.00462264 -0.00270087 0)
(-0.00612663 -0.00312616 0)
(-0.00775219 -0.00352707 0)
(-0.00946516 -0.00389076 0)
(-0.0112263 -0.00419888 0)
(-0.012991 -0.00442993 0)
(-0.0147108 -0.00456146 0)
(-0.0163349 -0.00457235 0)
(-0.0178125 -0.00444471 0)
(-0.0190953 -0.00416536 0)
(-0.0201402 -0.00372686 0)
(-0.0209104 -0.00312789 0)
(-0.0213762 -0.0023741 0)
(-1.64646e-05 -0.000102019 0)
(-0.000319499 -0.000450299 0)
(-0.000900307 -0.000812125 0)
(-0.00171512 -0.00114634 0)
(-0.00272524 -0.00145734 0)
(-0.00390336 -0.001754 0)
(-0.00522534 -0.00204035 0)
(-0.00666693 -0.00231433 0)
(-0.00820116 -0.00256848 0)
(-0.00979667 -0.00279132 0)
(-0.0114173 -0.00296883 0)
(-0.0130226 -0.00308599 0)
(-0.0145693 -0.00312823 0)
(-0.0160132 -0.00308273 0)
(-0.0173109 -0.00293951 0)
(-0.0184226 -0.00269212 0)
(-0.0193133 -0.00233797 0)
(-0.0199546 -0.00187897 0)
(-1.46087e-06 -3.64582e-05 0)
(-0.000210754 -0.00024675 0)
(-0.000660747 -0.000473305 0)
(-0.00131427 -0.000680347 0)
(-0.0021379 -0.000871501 0)
(-0.0031075 -0.00105378 0)
(-0.00420338 -0.00123094 0)
(-0.00540708 -0.0014026 0)
(-0.00669848 -0.00156481 0)
(-0.00805402 -0.00171089 0)
(-0.00944593 -0.00183241 0)
(-0.0108425 -0.00192009 0)
(-0.0122088 -0.0019647 0)
(-0.0135086 -0.00195788 0)
(-0.0147052 -0.00189279 0)
(-0.0157642 -0.00176464 0)
(-0.0166542 -0.00157085 0)
(-0.0173499 -0.00131139 0)
(1.06887e-05 -4.42455e-06 0)
(-0.000116975 -0.000120044 0)
(-0.000443047 -0.000247484 0)
(-0.000935024 -0.000361983 0)
(-0.00156448 -0.000466661 0)
(-0.00231111 -0.000566372 0)
(-0.00315983 -0.000663872 0)
(-0.0040975 -0.00075942 0)
(-0.0051102 -0.000851147 0)
(-0.00618141 -0.000935579 0)
(-0.00729125 -0.00100817 0)
(-0.00841641 -0.00106381 0)
(-0.00953073 -0.0010973 0)
(-0.0106062 -0.00110381 0)
(-0.0116142 -0.00107925 0)
(-0.0125269 -0.00102055 0)
(-0.0133184 -0.000925826 0)
(-0.0139679 -0.000794338 0)
(1.79835e-05 6.05867e-06 0)
(-4.65918e-05 -4.81904e-05 0)
(-0.000261838 -0.000108105 0)
(-0.000599769 -0.000160725 0)
(-0.00103777 -0.000208282 0)
(-0.00156032 -0.000253519 0)
(-0.00215694 -0.000298015 0)
(-0.00281921 -0.000342088 0)
(-0.00353845 -0.000385005 0)
(-0.00430423 -0.000425259 0)
(-0.00510363 -0.000460807 0)
(-0.00592113 -0.000489309 0)
(-0.00673887 -0.00050834 0)
(-0.00753736 -0.000515593 0)
(-0.00829626 -0.000509053 0)
(-0.00899534 -0.000487138 0)
(-0.00961527 -0.000448763 0)
(-0.0101405 -0.000393175 0)
(1.83765e-05 5.65639e-06 0)
(-4.30766e-06 -1.31426e-05 0)
(-0.000123666 -3.30372e-05 0)
(-0.000318547 -4.99719e-05 0)
(-0.00057379 -6.50492e-05 0)
(-0.000879565 -7.93641e-05 0)
(-0.00122984 -9.3543e-05 0)
(-0.00162018 -0.000107753 0)
(-0.00204613 -0.000121802 0)
(-0.00250223 -0.000135231 0)
(-0.00298151 -0.000147398 0)
(-0.00347533 -0.000157551 0)
(-0.00397354 -0.000164897 0)
(-0.00446478 -0.000168665 0)
(-0.00493702 -0.000168163 0)
(-0.00537805 -0.00016282 0)
(-0.00577585 -0.000152193 0)
(-0.00612075 -0.000135773 0)
(9.89007e-06 2.0209e-06 0)
(8.16497e-06 -6.40096e-07 0)
(-2.93087e-05 -2.28759e-06 0)
(-9.30956e-05 -3.59282e-06 0)
(-0.000177401 -4.70494e-06 0)
(-0.000278711 -5.75736e-06 0)
(-0.000395093 -6.81849e-06 0)
(-0.000525275 -7.91205e-06 0)
(-0.000668026 -9.02962e-06 0)
(-0.000821782 -1.01402e-05 0)
(-0.000984451 -1.11961e-05 0)
(-0.00115334 -1.21397e-05 0)
(-0.0013252 -1.29072e-05 0)
(-0.0014963 -1.34346e-05 0)
(-0.00166261 -1.36618e-05 0)
(-0.00181995 -1.35415e-05 0)
(-0.00196407 -1.29959e-05 0)
(-0.00209147 -1.191e-05 0)
(1.62367e-05 -3.73895e-05 6.10069e-24)
(0.000123278 -9.17099e-05 -8.21566e-24)
(0.000301018 -0.000125655 0)
(0.000522161 -0.000141225 0)
(0.000751689 -0.000143294 0)
(0.00096384 -0.000135799 6.22898e-24)
(0.0011402 -0.000121951 0)
(0.00126749 -0.000104347 0)
(0.00133642 -8.49441e-05 0)
(0.00134086 -6.51113e-05 0)
(0.00127712 -4.56941e-05 3.98636e-24)
(0.00114318 -2.71478e-05 0)
(0.00093802 -9.61851e-06 0)
(0.000661122 6.98691e-06 0)
(0.000312029 2.29278e-05 0)
(-0.00010995 3.85693e-05 2.04421e-23)
(-0.000605942 5.43349e-05 0)
(-0.00117758 7.06638e-05 0)
(-0.00182697 8.79704e-05 0)
(-0.00255661 0.00010661 0)
(-0.00336916 0.000126854 0)
(-0.0042672 0.00014888 0)
(-0.00525296 0.000172758 0)
(-0.00632802 0.000198449 5.53614e-23)
(-0.00749291 0.000225804 -6.00011e-23)
(-0.00874691 0.000254566 6.45412e-23)
(-0.0100877 0.000284369 6.89065e-23)
(-0.011511 0.000314745 0)
(-0.0130106 0.000345125 0)
(-0.014578 0.000374844 -8.00572e-23)
(-0.0162023 0.000403151 -8.27836e-23)
(-0.01787 0.000429223 0)
(-0.0195655 0.000452179 0)
(-0.0212707 0.000471108 -8.63959e-23)
(-0.0229653 0.000485092 0)
(-0.0246272 0.000493248 0)
(-0.0262327 0.00049476 8.07529e-23)
(-0.027757 0.000488922 0)
(-0.0291748 0.000475174 7.05486e-23)
(-0.0304606 0.000453148 1.26641e-22)
(-0.0315896 0.00042269 0)
(-0.0325381 0.000383895 0)
(-0.0332842 0.000337096 0)
(-0.0338083 0.000282859 0)
(-0.0340938 0.000222032 0)
(-0.0341271 0.000155847 -1.86403e-23)
(-0.0338981 8.52577e-05 -5.11153e-23)
(-0.0334015 1.16096e-05 -8.51601e-23)
(-0.0326359 -6.34895e-05 0)
(-0.0316038 -0.00013849 1.56283e-22)
(-0.0303117 -0.000211919 0)
(-0.0287697 -0.000282399 -2.28318e-22)
(-0.0269915 -0.000348696 -2.63424e-22)
(-0.0249934 -0.000409763 0)
(-0.0227941 -0.000464762 0)
(-0.0204139 -0.000513085 0)
(-0.0178746 -0.000554345 -3.85982e-22)
(-0.0151986 -0.000588361 0)
(-0.0124085 -0.000615122 0)
(-0.00952698 -0.000634748 0)
(-0.00657634 -0.000647426 0)
(-0.0035788 -0.000653285 0)
(-0.00055651 -0.00065217 0)
(0.00246874 -0.000643785 0)
(0.00547542 -0.000628383 0)
(0.00844039 -0.0006065 4.36978e-22)
(0.0113398 -0.000578303 0)
(0.014149 -0.000543721 0)
(0.0168418 -0.000502628 -3.65108e-22)
(0.0193905 -0.000454936 -3.33747e-22)
(0.0217661 -0.000400664 0)
(0.0239382 -0.000340015 2.62401e-22)
(0.0258758 -0.000273441 -2.23453e-22)
(0.0275483 -0.000201702 0)
(0.0289264 -0.0001259 1.42007e-22)
(0.0299835 -4.74835e-05 0)
(0.0306969 3.17447e-05 0)
(0.03105 0.000109556 -2.11303e-23)
(0.0310323 0.000183744 0)
(0.0306435 0.000251925 -5.04803e-23)
(0.0298925 0.000312174 0)
(0.028798 0.000362314 1.09185e-22)
(0.0273889 0.000400837 1.32629e-22)
(0.0257042 0.000426711 1.51813e-22)
(0.0237919 0.000439532 3.33357e-22)
(0.0217064 0.000439588 -3.54631e-22)
(0.0195066 0.00042784 0)
(0.0172533 0.000405835 0)
(0.0150053 0.000375564 0)
(0.0128171 0.000339285 -3.67733e-22)
(0.0107364 0.000299325 -3.57707e-22)
(0.0088015 0.000257884 3.44506e-22)
(0.00704089 0.00021688 0)
(0.00547256 0.000177836 -3.12578e-22)
(0.00410474 0.000141835 -2.95555e-22)
(0.00293697 0.000109544 -2.78728e-22)
(0.00196165 8.12912e-05 0)
(0.00116547 5.71825e-05 0)
(0.000530791 3.72144e-05 0)
(3.66798e-05 2.135e-05 -2.21481e-22)
(-0.000340077 9.5366e-06 0)
(-0.000623926 1.64937e-06 0)
(-0.000839293 -2.58874e-06 1.93958e-22)
(-0.00100914 -3.64704e-06 0)
(-0.00115356 -2.18035e-06 0)
(-0.00128859 1.03209e-06 1.79527e-22)
(-0.00142561 5.18645e-06 0)
(-0.00157127 9.55664e-06 0)
(-0.00172796 1.35676e-05 -1.73037e-22)
(-0.00189473 1.68268e-05 -1.71617e-22)
(-0.00206826 1.91179e-05 0)
(-0.00224384 2.03697e-05 1.68868e-22)
(-0.00241618 2.06165e-05 0)
(-0.00258008 1.99596e-05 -1.65533e-22)
(-0.00273081 1.85377e-05 0)
(-0.00286437 1.65059e-05 -1.61173e-22)
(-0.00297769 1.40228e-05 -1.58576e-22)
(-0.00306863 1.12423e-05 0)
(-0.00313603 8.30728e-06 0)
(-0.0031796 5.34432e-06 0)
(-0.00319991 2.47216e-06 0)
(-0.00319815 -1.72012e-07 0)
(-0.00317614 -2.58508e-06 0)
(-0.00313615 -4.69051e-06 0)
(-0.00308074 -6.44814e-06 -1.31761e-22)
(-0.0030126 -7.84559e-06 1.28321e-22)
(-0.00293451 -8.88703e-06 0)
(-0.00284912 -9.5902e-06 0)
(-0.002759 -9.9835e-06 0)
(-0.00266643 -1.01027e-05 0)
(-0.00257346 -9.98805e-06 2.26433e-22)
(-0.00248185 -9.68118e-06 0)
(-0.00239305 -9.22321e-06 -2.16694e-22)
(-0.00230819 -8.65283e-06 2.12315e-22)
(-0.00222816 -8.00515e-06 0)
(-0.00215356 -7.31088e-06 0)
(-0.00208479 -6.59608e-06 0)
(-0.00202204 -5.88205e-06 -1.97522e-22)
(-0.00196534 -5.18564e-06 -1.94367e-22)
(-0.00191458 -4.51956e-06 0)
(-0.00186956 -3.89293e-06 -1.88509e-22)
(-0.00183 -3.31175e-06 -1.85755e-22)
(-0.00179557 -2.77948e-06 1.83087e-22)
(-0.00176589 -2.2975e-06 0)
(-0.00174058 -1.8656e-06 0)
(-0.00171923 -1.4824e-06 1.75403e-22)
(-0.00170146 -1.14564e-06 0)
(-0.00168688 -8.52487e-07 0)
(-0.00167512 -5.99724e-07 0)
(-0.00166584 -3.83946e-07 0)
(-0.00165872 -2.0166e-07 -1.62836e-22)
(-0.00165344 -4.93716e-08 -1.60278e-22)
(-0.00164974 7.63443e-08 0)
(-0.00164737 1.78541e-07 -1.55079e-22)
(-0.00164611 2.58861e-07 0)
(-0.00164574 3.19248e-07 0)
(-0.0016461 3.62341e-07 -1.4705e-22)
(-0.00164704 3.9093e-07 0)
(-0.00164842 4.07873e-07 -1.41543e-22)
(-0.00165016 4.16015e-07 0)
(-0.00165218 4.17837e-07 0)
(-0.00165445 4.14897e-07 -1.33068e-22)
(-0.00165695 4.1169e-07 0)
(-0.00165971 4.24899e-07 -1.27287e-22)
(-0.00166276 4.48855e-07 0)
(-0.00166618 4.89016e-07 0)
(-0.00167001 5.48265e-07 0)
(-0.00167427 6.081e-07 1.15383e-22)
(-0.00167893 6.60277e-07 0)
(-0.00168381 6.93702e-07 -1.09184e-22)
(-0.00168857 6.88553e-07 0)
(-0.00169263 6.27985e-07 0)
(-0.00169506 5.55628e-07 0)
(-0.00169457 3.32387e-07 0)
(-0.00168946 -6.02702e-08 0)
(-0.00167739 -6.524e-07 0)
(-0.00165475 -1.62773e-06 0)
(-0.00161596 -3.90489e-06 1.62549e-22)
(-0.00156358 -4.0387e-06 0)
(-0.00138486 -2.80183e-05 0)
(2.88477e-05 -0.000243769 -2.0977e-23)
(0.000221659 -0.000578229 2.84858e-23)
(0.00050374 -0.000770264 0)
(0.00082447 -0.000837111 -1.90039e-23)
(0.0011249 -0.000801739 0)
(0.00135984 -0.000687358 -6.68025e-24)
(0.00149473 -0.000514741 1.2554e-23)
(0.00150268 -0.000301391 9.14689e-24)
(0.001363 -6.13741e-05 0)
(0.00106028 0.000194614 6.63926e-25)
(0.000583246 0.000458867 -4.29738e-24)
(-7.63123e-05 0.000726234 0)
(-0.000924407 0.00099375 0)
(-0.0019657 0.00126017 0)
(-0.00320414 0.00152555 0)
(-0.00464342 0.00179077 -2.18991e-23)
(-0.00628721 0.00205716 0)
(-0.00813926 0.00232609 5.1179e-23)
(-0.0102032 0.00259865 0)
(-0.0124823 0.00287535 0)
(-0.014979 0.00315593 -7.65601e-23)
(-0.017694 0.00343918 0)
(-0.0206262 0.00372291 9.46349e-23)
(-0.0237715 0.0040039 -5.81936e-23)
(-0.0271223 0.004278 6.28656e-23)
(-0.0306669 0.00454019 -6.73933e-23)
(-0.0343892 0.00478468 -7.17004e-23)
(-0.0382677 0.00500513 0)
(-0.0422759 0.0051948 0)
(-0.046382 0.00534673 8.24159e-23)
(-0.0505488 0.00545399 -7.40574e-23)
(-0.0547342 0.00550991 0)
(-0.0588918 0.00550832 0)
(-0.0629712 0.00544384 8.77945e-23)
(-0.0669194 0.00531206 0)
(-0.0706811 0.00510983 0)
(-0.0742007 0.00483543 -8.14918e-23)
(-0.0774225 0.00448872 0)
(-0.0802927 0.00407127 7.04193e-23)
(-0.0827603 0.00358635 -1.27391e-22)
(-0.0847783 0.00303898 0)
(-0.0863047 0.00243573 0)
(-0.0873036 0.00178458 -1.43847e-22)
(-0.0877458 0.00109463 -9.48462e-23)
(-0.0876091 0.000376137 -4.04433e-23)
(-0.0868796 -0.000359804 -3.635e-26)
(-0.0855521 -0.0011019 5.18095e-23)
(-0.0836283 -0.00183862 2.36459e-22)
(-0.0811181 -0.00255886 -2.2031e-22)
(-0.0780385 -0.00325234 -1.59764e-22)
(-0.0744132 -0.00390978 0)
(-0.0702712 -0.00452314 2.35316e-22)
(-0.0656468 -0.00508581 -2.41986e-22)
(-0.0605782 -0.00559266 0)
(-0.0551064 -0.00604012 0)
(-0.0492744 -0.00642611 0)
(-0.0431267 -0.0067499 4.09151e-22)
(-0.0367077 -0.00701194 0)
(-0.0300618 -0.00721353 -8.88219e-22)
(-0.0232326 -0.00735658 0)
(-0.0162627 -0.00744319 -9.63122e-22)
(-0.0091939 -0.00747523 0)
(-0.00206812 -0.00745385 9.99105e-22)
(0.00507271 -0.00737945 0)
(0.0121882 -0.00725231 -9.58638e-22)
(0.0192336 -0.00707251 4.41795e-22)
(0.026163 -0.00683925 0)
(0.032928 -0.0065508 8.15616e-22)
(0.0394766 -0.00620491 3.92517e-22)
(0.0457526 -0.00579932 3.57075e-22)
(0.0516955 -0.00533216 0)
(0.0572405 -0.00480257 2.49998e-22)
(0.0623196 -0.00421115 2.36284e-22)
(0.0668622 -0.00356055 0)
(0.0707973 -0.00285587 -1.49401e-22)
(0.0740553 -0.00210506 1.9108e-22)
(0.0765713 -0.00131918 0)
(0.0782875 -0.000512484 2.21724e-23)
(0.0791563 0.000297606 0)
(0.0791467 0.00109335 1.68651e-22)
(0.078247 0.00185258 0)
(0.0764659 0.00255386 -3.4716e-22)
(0.0738364 0.00317681 -1.39701e-22)
(0.0704173 0.00370285 1.56037e-22)
(0.0662933 0.00411666 3.37832e-22)
(0.0615729 0.00440765 -3.55572e-22)
(0.0563849 0.00457097 0)
(0.0508726 0.00460807 0)
(0.0451873 0.00452674 0)
(0.0394797 0.00434042 1.1639e-21)
(0.0338921 0.00406712 3.9262e-22)
(0.0285504 0.00372769 -3.80618e-22)
(0.0235589 0.00334406 0)
(0.0189958 0.0029374 -3.13077e-22)
(0.0149125 0.00252678 3.32506e-22)
(0.0113338 0.00212815 3.15204e-22)
(0.00826128 0.00175416 0)
(0.00567589 0.00141429 0)
(0.00354233 0.00111532 0)
(0.00181255 0.000861795 2.54434e-22)
(0.000429403 0.00065612 0)
(-0.000669571 0.000498429 -4.53909e-22)
(-0.00154819 0.000386324 -6.62068e-22)
(-0.00226731 0.000314868 4.25801e-22)
(-0.00288101 0.000276994 0)
(-0.00343355 0.000264259 2.01348e-22)
(-0.00395762 0.000267875 0)
(-0.00447404 0.000279708 3.98478e-22)
(-0.00499288 0.000293029 -1.95308e-22)
(-0.00551538 0.000302899 -1.94003e-22)
(-0.00603639 0.000306192 0)
(-0.00654674 0.000301377 -5.81643e-22)
(-0.00703536 0.000288171 3.83436e-22)
(-0.00749087 0.000267176 1.91326e-22)
(-0.0079028 0.000239554 0)
(-0.00826236 0.000206776 1.86443e-22)
(-0.00856286 0.00017044 5.49019e-22)
(-0.00879997 0.000132139 0)
(-0.00897166 9.33769e-05 3.52988e-22)
(-0.00907813 5.54988e-05 3.46019e-22)
(-0.00912158 1.9664e-05 3.3869e-22)
(-0.00910591 -1.31406e-05 0)
(-0.00903639 -4.23035e-05 0)
(-0.00891931 -6.73357e-05 0)
(-0.00876164 -8.79876e-05 -1.54344e-22)
(-0.00857069 -0.000104218 -1.49503e-22)
(-0.00835377 -0.000116157 0)
(-0.008118 -0.000124073 -2.85603e-22)
(-0.00787001 -0.00012834 -2.78811e-22)
(-0.00761588 -0.000129397 0)
(-0.00736096 -0.000127723 -2.65027e-22)
(-0.00710981 -0.000123806 -5.21207e-22)
(-0.00686626 -0.00011812 2.541e-22)
(-0.00663332 -0.000111112 2.514e-22)
(-0.00641329 -0.000103183 0)
(-0.00620782 -9.46873e-05 0)
(-0.00601795 -8.59259e-05 0)
(-0.00584423 -7.7147e-05 2.32648e-22)
(-0.00568677 -6.85489e-05 -2.30511e-22)
(-0.00554533 -6.02836e-05 -4.52785e-22)
(-0.0054194 -5.24624e-05 2.2258e-22)
(-0.00530828 -4.51616e-05 -2.2044e-22)
(-0.00521109 -3.84277e-05 -2.16517e-22)
(-0.00512688 -3.22834e-05 0)
(-0.00505462 -2.67324e-05 0)
(-0.00499326 -2.17638e-05 2.08379e-22)
(-0.00494177 -1.73562e-05 0)
(-0.00489912 -1.34802e-05 0)
(-0.00486433 -1.01016e-05 -3.99092e-22)
(-0.00483648 -7.1831e-06 0)
(-0.00481467 -4.68602e-06 -1.93829e-22)
(-0.00479811 -2.57123e-06 1.9078e-22)
(-0.00478604 -8.00141e-07 0)
(-0.00477777 6.64515e-07 -1.84871e-22)
(-0.00477269 1.85741e-06 0)
(-0.00477024 2.81234e-06 0)
(-0.00476994 3.56296e-06 1.75629e-22)
(-0.00477137 4.1426e-06 -3.44896e-22)
(-0.00477417 4.58449e-06 1.69278e-22)
(-0.00477807 4.92209e-06 0)
(-0.00478285 5.18885e-06 0)
(-0.00478838 5.41741e-06 -1.59375e-22)
(-0.00479461 5.64175e-06 0)
(-0.00480155 5.90393e-06 -1.5264e-22)
(-0.00480928 6.21617e-06 0)
(-0.0048179 6.58917e-06 0)
(-0.00482748 7.00856e-06 0)
(-0.00483799 7.39708e-06 -1.38819e-22)
(-0.00484918 7.65501e-06 0)
(-0.00486046 7.63321e-06 1.31535e-22)
(-0.00487076 7.12438e-06 0)
(-0.0048783 5.88456e-06 0)
(-0.00488053 3.66771e-06 -2.39906e-22)
(-0.00487388 -1.9665e-08 2.31806e-22)
(-0.00485359 -5.61891e-06 0)
(-0.0048134 -1.37777e-05 0)
(-0.00474435 -2.57946e-05 0)
(-0.00463418 -4.44006e-05 -5.92285e-22)
(-0.00448267 -7.4399e-05 0)
(-0.00412332 -0.000147266 3.58143e-22)
(2.61033e-05 -0.00048762 -4.67478e-24)
(0.00018448 -0.00109045 -4.50669e-23)
(0.000381561 -0.00137759 0)
(0.000559308 -0.00140347 4.28785e-23)
(0.00065513 -0.0012188 0)
(0.00062067 -0.000869319 0)
(0.000417849 -0.000394813 4.60519e-24)
(1.57866e-05 0.000171174 -9.16326e-24)
(-0.000610527 0.000801406 -1.01779e-23)
(-0.00148126 0.00147445 -6.62592e-25)
(-0.00261256 0.00217425 0)
(-0.00401738 0.00288945 0)
(-0.00570622 0.00361271 -8.87245e-24)
(-0.00768777 0.00433986 -2.91409e-23)
(-0.00996926 0.00506908 4.12628e-23)
(-0.0125568 0.00580006 0)
(-0.0154552 0.00653311 6.76952e-23)
(-0.0186683 0.00726839 -5.00453e-23)
(-0.0221978 0.00800517 0)
(-0.0260434 0.00874125 1.12766e-22)
(-0.0302017 0.00947251 7.4205e-23)
(-0.0346655 0.0101926 -1.46081e-22)
(-0.0394228 0.0108931 -9.11423e-23)
(-0.0444563 0.0115631 0)
(-0.0497426 0.0121899 1.99149e-22)
(-0.0552515 0.0127593 2.17007e-22)
(-0.0609459 0.0132557 0)
(-0.0667815 0.0136629 2.51535e-22)
(-0.0727074 0.013965 0)
(-0.0786663 0.014146 2.82356e-22)
(-0.0845951 0.0141917 1.49619e-22)
(-0.0904264 0.0140892 0)
(-0.0960894 0.0138281 0)
(-0.101511 0.0134009 0)
(-0.106618 0.0128033 0)
(-0.111338 0.0120344 0)
(-0.115602 0.0110973 0)
(-0.119344 0.00999872 3.02918e-22)
(-0.122505 0.00874915 -4.19114e-22)
(-0.125029 0.00736255 0)
(-0.126873 0.00585601 0)
(-0.127998 0.00424923 0)
(-0.128377 0.00256396 -3.1316e-23)
(-0.127988 0.000823552 8.94053e-23)
(-0.126824 -0.0009473 1.10349e-22)
(-0.124885 -0.00272335 6.39456e-25)
(-0.122179 -0.00447999 4.22599e-23)
(-0.118724 -0.00619404 -1.41745e-22)
(-0.114544 -0.0078441 3.65378e-23)
(-0.10967 -0.00941087 -2.40918e-22)
(-0.104141 -0.0108777 0)
(-0.0979979 -0.0122306 -3.82698e-22)
(-0.0912881 -0.013459 3.70843e-23)
(-0.084061 -0.0145551 0)
(-0.076368 -0.0155143 0)
(-0.0682613 -0.016335 6.56194e-22)
(-0.0597935 -0.017018 0)
(-0.0510163 -0.017566 0)
(-0.04198 -0.0179835 -7.83518e-22)
(-0.0327337 -0.0182755 -1.72974e-21)
(-0.0233244 -0.0184476 9.39452e-22)
(-0.0137978 -0.0185046 0)
(-0.0041991 -0.0184499 -9.83208e-22)
(0.00542589 -0.0182856 0)
(0.015036 -0.0180117 -8.62769e-22)
(0.0245823 -0.0176265 -8.99529e-22)
(0.0340145 -0.0171266 1.62458e-21)
(0.0432791 -0.0165071 7.19433e-22)
(0.0523176 -0.0157615 0)
(0.0610656 -0.014883 -1.24949e-21)
(0.0694524 -0.0138649 0)
(0.0774003 -0.0127022 -1.45703e-21)
(0.0848255 -0.0113925 -7.89966e-22)
(0.0916384 -0.0099367 -6.27871e-22)
(0.097745 -0.00834086 4.65259e-22)
(0.103049 -0.00661661 -4.86916e-22)
(0.107454 -0.00478221 0)
(0.110868 -0.00286304 0)
(0.113207 -0.000891892 -1.40635e-22)
(0.114398 0.00109202 -3.78412e-22)
(0.114382 0.00304137 0)
(0.11313 0.00490558 2.20087e-22)
(0.11064 0.0066326 0)
(0.106944 0.0081709 -9.21406e-22)
(0.102109 0.00947271 1.71764e-23)
(0.0962413 0.010498 -9.30946e-24)
(0.089487 0.0112178 7.2002e-22)
(0.0820244 0.0116178 0)
(0.0740586 0.0116997 -7.20778e-22)
(0.0658109 0.0114818 -1.95038e-23)
(0.057506 0.0109978 0)