/*--------------------------------*- C++ -*----------------------------------*\
  =========                 |
  \\      /  F ield         | OpenFOAM: The Open Source CFD Toolbox
   \\    /   O peration     | Website:  https://openfoam.org
    \\  /    A nd           | Version:  8
     \\/     M anipulation  |
\*---------------------------------------------------------------------------*/
FoamFile
{
    version     2.0;
    format      ascii;
    class       volScalarField;
    location    "0.34";
    object      p;
}
// * * * * * * * * * * * * * * * * * * * * * * * * * * * * * * * * * * * * * //

dimensions      [0 2 -2 0 0 0 0];

internalField   nonuniform List<scalar> 
12225
(
-0.0245339
-0.0246411
-0.0248051
-0.0250017
-0.0252187
-0.025457
-0.0257213
-0.0260251
-0.0263984
-0.0268941
-0.0275882
-0.0285696
-0.029921
-0.0317012
-0.0339486
-0.0367373
-0.0404179
-0.0472685
-0.024541
-0.024638
-0.0247949
-0.0249888
-0.025208
-0.0254537
-0.0257317
-0.0260567
-0.026459
-0.02699
-0.0277214
-0.0287349
-0.0301038
-0.0318768
-0.0340766
-0.0367417
-0.0400048
-0.0450237
-0.0245436
-0.024631
-0.0247797
-0.0249703
-0.0251921
-0.0254466
-0.0257404
-0.0260893
-0.0265238
-0.027093
-0.0278637
-0.0289092
-0.0302928
-0.0320498
-0.0341813
-0.036675
-0.0394506
-0.0430236
-0.0245385
-0.0246188
-0.0247602
-0.0249477
-0.0251716
-0.0254342
-0.0257425
-0.0261125
-0.0265741
-0.0271742
-0.0279745
-0.0290418
-0.0304302
-0.0321619
-0.0342145
-0.0365274
-0.0389166
-0.0415936
-0.0245254
-0.0246005
-0.0247355
-0.0249198
-0.0251457
-0.0254154
-0.0257364
-0.0261243
-0.0266078
-0.027231
-0.0280517
-0.0291312
-0.0305162
-0.0322172
-0.0341904
-0.0363377
-0.0384433
-0.0405628
-0.0245043
-0.0245753
-0.0247041
-0.0248853
-0.0251123
-0.0253883
-0.0257201
-0.0261229
-0.0266234
-0.0272631
-0.0280962
-0.0291799
-0.0305554
-0.0322235
-0.0341232
-0.0361306
-0.038029
-0.0397894
-0.0244751
-0.0245419
-0.0246649
-0.0248423
-0.0250699
-0.0253507
-0.0256913
-0.0261055
-0.0266181
-0.0272678
-0.0281057
-0.0291859
-0.0305458
-0.0321791
-0.0340128
-0.0359072
-0.037656
-0.0391864
-0.0244375
-0.0244994
-0.0246161
-0.0247894
-0.0250163
-0.0253001
-0.0256469
-0.0260688
-0.0265881
-0.0272407
-0.0280751
-0.0291431
-0.0304797
-0.0320739
-0.0338458
-0.0356474
-0.0372868
-0.0386683
-0.0243908
-0.0244465
-0.0245563
-0.0247242
-0.0249489
-0.0252334
-0.025583
-0.026008
-0.0265279
-0.0271756
-0.0279969
-0.0290417
-0.0303434
-0.031889
-0.0335956
-0.0353135
-0.0368642
-0.0381406
-0.0243343
-0.0243817
-0.0244831
-0.0246444
-0.0248647
-0.0251467
-0.0254948
-0.0259171
-0.0264304
-0.0270637
-0.0278599
-0.028867
-0.0301172
-0.0315971
-0.0332249
-0.0348542
-0.0363188
-0.0375061
-0.0242663
-0.0243032
-0.0243947
-0.0245473
-0.0247603
-0.0250358
-0.0253768
-0.0257895
-0.026287
-0.0268946
-0.0276512
-0.0286022
-0.0297787
-0.0311689
-0.0326949
-0.0342176
-0.0355831
-0.0366783
-0.0241915
-0.024217
-0.0242975
-0.0244401
-0.0246429
-0.0249076
-0.025236
-0.0256317
-0.0261052
-0.0266775
-0.0273832
-0.0282639
-0.0293493
-0.0306295
-0.0320331
-0.0334307
-0.0346811
-0.0356737
-0.0241034
-0.0241167
-0.0241845
-0.0243143
-0.0245033
-0.0247519
-0.0250608
-0.0254314
-0.0258713
-0.0263971
-0.0270385
-0.027832
-0.0288047
-0.0299489
-0.0312017
-0.0324481
-0.0335609
-0.0344352
-0.0239813
-0.0239807
-0.0240321
-0.0241438
-0.0243113
-0.0245339
-0.0248106
-0.0251402
-0.0255276
-0.0259838
-0.0265321
-0.0272025
-0.0280179
-0.0289732
-0.0300174
-0.031056
-0.0319803
-0.0326977
-0.0238094
-0.0237946
-0.0238261
-0.0239127
-0.0240485
-0.0242309
-0.0244573
-0.0247249
-0.0250341
-0.0253901
-0.0258091
-0.0263127
-0.0269182
-0.0276233
-0.0283914
-0.0291537
-0.0298275
-0.030334
-0.0235657
-0.0235388
-0.023548
-0.0236016
-0.0236931
-0.0238182
-0.0239728
-0.0241524
-0.0243546
-0.0245757
-0.0248271
-0.0251198
-0.0254655
-0.0258636
-0.0262936
-0.0267146
-0.0270715
-0.0273074
-0.0232245
-0.0231903
-0.0231765
-0.0231899
-0.0232244
-0.023275
-0.0233364
-0.0234021
-0.0234655
-0.0235273
-0.0235841
-0.0236358
-0.0236922
-0.0237522
-0.0238107
-0.0238499
-0.0238429
-0.0237598
-0.0227667
-0.0227296
-0.0226931
-0.0226615
-0.0226299
-0.0225935
-0.0225475
-0.0224848
-0.0223982
-0.0222817
-0.0221299
-0.0219446
-0.0217227
-0.021467
-0.0211766
-0.0208511
-0.0204896
-0.0200873
-0.0221993
-0.0221604
-0.0221005
-0.0220214
-0.0219204
-0.021795
-0.0216405
-0.0214512
-0.0212212
-0.0209442
-0.0206153
-0.0202312
-0.0197901
-0.0192924
-0.018741
-0.0181422
-0.0175062
-0.016843
-0.0217136
-0.0216728
-0.0215962
-0.0214819
-0.0213291
-0.0211367
-0.0209021
-0.0206223
-0.0202936
-0.0199129
-0.019478
-0.0189878
-0.018443
-0.0178461
-0.0172015
-0.0165163
-0.015801
-0.0150682
-0.0213714
-0.0213349
-0.0212525
-0.0211199
-0.0209378
-0.0207064
-0.0204246
-0.0200912
-0.0197045
-0.0192639
-0.0187693
-0.0182216
-0.0176234
-0.0169786
-0.0162933
-0.0155757
-0.0148363
-0.014087
-0.0211108
-0.0210859
-0.0210049
-0.020862
-0.0206607
-0.0204025
-0.0200878
-0.0197171
-0.0192906
-0.0188094
-0.018275
-0.0176901
-0.0170587
-0.0163859
-0.0156787
-0.0149455
-0.0141966
-0.0134428
-0.0209227
-0.0209132
-0.0208369
-0.0206875
-0.0204721
-0.0201936
-0.0198537
-0.0194543
-0.0189972
-0.0184848
-0.01792
-0.0173068
-0.0166502
-0.0159565
-0.0152332
-0.0144893
-0.0137348
-0.0129798
-0.0208001
-0.0208057
-0.020734
-0.0205798
-0.0203531
-0.0200582
-0.0196979
-0.0192752
-0.0187931
-0.0182551
-0.0176651
-0.017028
-0.0163499
-0.0156378
-0.0148998
-0.0141455
-0.0133849
-0.0126277
-0.0207333
-0.0207508
-0.0206824
-0.0205245
-0.0202888
-0.0199805
-0.0196036
-0.0191619
-0.0186593
-0.0180999
-0.0174886
-0.016831
-0.0161337
-0.0154045
-0.0146522
-0.0138864
-0.0131177
-0.012356
-0.0207089
-0.0207348
-0.0206689
-0.0205085
-0.0202659
-0.019947
-0.0195567
-0.0190998
-0.0185805
-0.0180036
-0.0173744
-0.0166989
-0.0159846
-0.0152394
-0.0144727
-0.0136943
-0.0129153
-0.0121459
-0.0207124
-0.0207451
-0.020682
-0.0205207
-0.020273
-0.0199457
-0.0195449
-0.0190758
-0.0185432
-0.017952
-0.0173078
-0.016617
-0.0158873
-0.015127
-0.0143457
-0.0135537
-0.0127622
-0.0119821
-0.0207312
-0.0207719
-0.0207136
-0.0205528
-0.0203013
-0.0199674
-0.0195583
-0.0190795
-0.0185362
-0.0179333
-0.0172765
-0.0165723
-0.0158284
-0.0150535
-0.0142573
-0.0134504
-0.0126441
-0.0118501
-0.0207552
-0.020808
-0.0207571
-0.0205977
-0.0203434
-0.0200043
-0.0195886
-0.0191023
-0.0185504
-0.0179379
-0.0172703
-0.0165543
-0.0157972
-0.0150081
-0.0141966
-0.0133735
-0.0125504
-0.0117392
-0.0207746
-0.0208406
-0.0207972
-0.0206393
-0.0203831
-0.0200405
-0.0196203
-0.0191288
-0.018571
-0.0179518
-0.0172766
-0.0165518
-0.0157847
-0.0149843
-0.0141604
-0.0133237
-0.0124859
-0.011659
-0.0583658
-0.058291
-0.0581926
-0.0581088
-0.0580646
-0.0580753
-0.0581491
-0.0582883
-0.0584897
-0.0587457
-0.0590467
-0.0593819
-0.0597413
-0.0601173
-0.060505
-0.0609037
-0.0613163
-0.061749
-0.0622112
-0.0627139
-0.0632693
-0.0638894
-0.0645851
-0.0653655
-0.0662376
-0.0672056
-0.0682711
-0.0694322
-0.0706836
-0.0720157
-0.0734146
-0.0748608
-0.0763295
-0.0777898
-0.0792048
-0.0805322
-0.0817247
-0.0827312
-0.0834983
-0.0839716
-0.0840982
-0.0838285
-0.0831182
-0.0819301
-0.0802364
-0.0780195
-0.0752734
-0.0720041
-0.06823
-0.0639817
-0.0593011
-0.0542405
-0.0488597
-0.0432285
-0.0374227
-0.0315206
-0.025604
-0.0197548
-0.0140531
-0.00857521
-0.00339239
0.00143081
0.00583773
0.00978059
0.0132213
0.016132
0.0184955
0.020305
0.0215643
0.0222869
0.0224959
0.0222224
0.021505
0.0203878
0.0189198
0.017153
0.0151407
0.0129365
0.0105918
0.00815596
0.00567547
0.00319211
0.00074229
-0.00164323
-0.0039394
-0.00612678
-0.00819119
-0.0101235
-0.0119187
-0.0135758
-0.0150968
-0.0164862
-0.0177505
-0.0188973
-0.0199351
-0.0208722
-0.0217171
-0.0224776
-0.0231607
-0.023773
-0.0243199
-0.0248059
-0.0252347
-0.0256095
-0.0259326
-0.0262064
-0.0264326
-0.0266129
-0.0267491
-0.0268428
-0.0268959
-0.0269102
-0.026888
-0.0268314
-0.026743
-0.0266252
-0.0264807
-0.0263122
-0.0261223
-0.0259136
-0.0256889
-0.0254505
-0.0252008
-0.024942
-0.0246761
-0.0244048
-0.02413
-0.0238529
-0.023575
-0.0232968
-0.0230199
-0.0227449
-0.0224723
-0.0222027
-0.0219363
-0.0216735
-0.0214144
-0.0211591
-0.0209076
-0.0206598
-0.0204157
-0.0201752
-0.0199381
-0.0197041
-0.0194732
-0.0192451
-0.0190196
-0.0187964
-0.0185753
-0.0183559
-0.0181382
-0.0179217
-0.0177062
-0.0174916
-0.0172775
-0.0170638
-0.0168501
-0.0166364
-0.0164225
-0.016208
-0.0159929
-0.0157769
-0.0155599
-0.0153418
-0.0151222
-0.0149009
-0.0146779
-0.0144526
-0.0142249
-0.0139941
-0.0137596
-0.01352
-0.013273
-0.0130151
-0.01274
-0.0124385
-0.0121029
-0.0117382
-0.0113275
-0.0107876
-0.0586503
-0.0585312
-0.0584101
-0.0583267
-0.0582906
-0.0583071
-0.0583799
-0.0585089
-0.0586898
-0.0589151
-0.0591754
-0.0594612
-0.059764
-0.0600777
-0.0603997
-0.06073
-0.0610724
-0.0614336
-0.0618227
-0.0622504
-0.0627282
-0.0632672
-0.0638775
-0.0645679
-0.0653456
-0.0662155
-0.0671804
-0.0682408
-0.0693943
-0.0706348
-0.0719523
-0.0733315
-0.0747517
-0.076186
-0.0776011
-0.0789573
-0.0802092
-0.0813058
-0.0821927
-0.0828128
-0.0831092
-0.0830271
-0.0825162
-0.0815334
-0.0800446
-0.0780266
-0.0754686
-0.072373
-0.0687561
-0.0646482
-0.060091
-0.0551309
-0.0498269
-0.0442531
-0.0384882
-0.0326142
-0.0267148
-0.0208738
-0.0151729
-0.00969003
-0.00449739
0.000339529
0.00476335
0.00872579
0.0121884
0.0151232
0.0175127
0.0193501
0.0206393
0.0213939
0.021637
0.0213999
0.0207212
0.0196452
0.0182209
0.0165003
0.0145364
0.0123825
0.0100894
0.00770681
0.00528125
0.00285362
0.000459406
-0.00187155
-0.00411503
-0.00625225
-0.0082699
-0.0101593
-0.0119159
-0.0135388
-0.0150303
-0.0163948
-0.0176386
-0.0187691
-0.0197945
-0.0207227
-0.0215617
-0.022319
-0.0230013
-0.0236147
-0.0241643
-0.0246542
-0.025088
-0.0254686
-0.0257983
-0.026079
-0.0263126
-0.0265005
-0.0266444
-0.0267458
-0.0268064
-0.0268282
-0.0268132
-0.0267637
-0.0266819
-0.0265705
-0.0264319
-0.026269
-0.0260843
-0.0258805
-0.0256602
-0.0254259
-0.0251799
-0.0249244
-0.0246614
-0.0243929
-0.0241204
-0.0238453
-0.023569
-0.0232928
-0.0230174
-0.0227435
-0.0224719
-0.0222031
-0.0219374
-0.0216751
-0.0214164
-0.0211614
-0.0209101
-0.0206625
-0.0204185
-0.020178
-0.0199409
-0.0197069
-0.0194759
-0.0192478
-0.0190221
-0.0187988
-0.0185775
-0.0183581
-0.0181401
-0.0179235
-0.0177079
-0.0174932
-0.017279
-0.0170651
-0.0168514
-0.0166376
-0.0164235
-0.0162089
-0.0159937
-0.0157777
-0.0155607
-0.0153424
-0.0151228
-0.0149015
-0.0146784
-0.0144531
-0.0142253
-0.0139945
-0.0137598
-0.01352
-0.0132728
-0.0130147
-0.01274
-0.0124409
-0.0121117
-0.0117601
-0.0113653
-0.0108584
-0.0588129
-0.0586534
-0.0585016
-0.0584094
-0.0583785
-0.0584066
-0.0584921
-0.0586309
-0.0588152
-0.0590343
-0.0592767
-0.0595316
-0.0597902
-0.0600472
-0.0603009
-0.0605536
-0.0608113
-0.0610831
-0.0613805
-0.0617159
-0.062102
-0.0625513
-0.0630753
-0.0636847
-0.0643886
-0.0651955
-0.0661123
-0.0671444
-0.0682948
-0.069563
-0.070944
-0.0724266
-0.0739926
-0.0756154
-0.0772593
-0.0788798
-0.080424
-0.0818317
-0.0830377
-0.0839739
-0.0845725
-0.0847691
-0.0845051
-0.0837315
-0.0824101
-0.0805162
-0.0780397
-0.0749864
-0.0713767
-0.06724
-0.0626206
-0.0575687
-0.0521618
-0.0464786
-0.0406005
-0.0346125
-0.0286009
-0.0226516
-0.0168476
-0.0112676
-0.00598475
-0.00106451
0.0034358
0.00746817
0.0109946
0.0139875
0.01643
0.0183161
0.01965
0.0204461
0.0207281
0.0205281
0.0198852
0.0188446
0.0174559
0.0157715
0.0138453
0.011731
0.00947894
0.00713909
0.00475852
0.00237796
3.24288e-05
-0.00224878
-0.0044421
-0.00652951
-0.00849826
-0.0103403
-0.0120519
-0.0136329
-0.0150859
-0.0164159
-0.0176293
-0.0187338
-0.0197372
-0.0206476
-0.0214727
-0.0222196
-0.0228947
-0.0235035
-0.0240511
-0.0245411
-0.0249766
-0.0253602
-0.025694
-0.0259797
-0.0262188
-0.0264126
-0.0265625
-0.02667
-0.0267366
-0.0267643
-0.026755
-0.0267108
-0.0266341
-0.0265275
-0.0263934
-0.0262346
-0.0260538
-0.0258536
-0.0256365
-0.0254052
-0.0251619
-0.0249089
-0.0246482
-0.0243817
-0.024111
-0.0238377
-0.0235629
-0.0232879
-0.0230135
-0.0227407
-0.0224699
-0.0222018
-0.0219367
-0.021675
-0.0214167
-0.0211621
-0.0209111
-0.0206637
-0.0204199
-0.0201795
-0.0199424
-0.0197085
-0.0194775
-0.0192493
-0.0190237
-0.0188003
-0.018579
-0.0183594
-0.0181415
-0.0179248
-0.0177091
-0.0174943
-0.01728
-0.0170661
-0.0168523
-0.0166384
-0.0164243
-0.0162097
-0.0159944
-0.0157783
-0.0155613
-0.015343
-0.0151234
-0.0149021
-0.014679
-0.0144538
-0.014226
-0.0139952
-0.0137606
-0.0135208
-0.0132739
-0.0130165
-0.0127437
-0.012449
-0.0121281
-0.0117909
-0.0114175
-0.0109485
-0.0587343
-0.0585572
-0.058395
-0.0583087
-0.0582974
-0.0583544
-0.0584739
-0.0586466
-0.0588596
-0.0590976
-0.0593452
-0.059589
-0.0598195
-0.0600313
-0.0602245
-0.0604048
-0.0605819
-0.0607692
-0.0609826
-0.0612392
-0.0615566
-0.0619523
-0.0624433
-0.0630463
-0.0637775
-0.0646527
-0.0656868
-0.0668924
-0.0682785
-0.069848
-0.0715959
-0.073507
-0.0755544
-0.077699
-0.0798887
-0.0820606
-0.0841419
-0.0860533
-0.0877124
-0.0890369
-0.0899486
-0.0903766
-0.0902607
-0.0895533
-0.0882214
-0.0862481
-0.0836336
-0.0803928
-0.0765503
-0.0721433
-0.0672273
-0.0618848
-0.0561886
-0.0502196
-0.0440642
-0.0378109
-0.0315487
-0.025365
-0.0193437
-0.013564
-0.00809851
-0.00301224
0.00163836
0.00580627
0.00945453
0.0125566
0.0150967
0.0170696
0.0184806
0.0193451
0.0196876
0.0195411
0.0189458
0.017948
0.0165982
0.0149498
0.013058
0.010977
0.00875818
0.00645297
0.00410829
0.00176506
-0.000541457
-0.00278194
-0.00493295
-0.00697683
-0.00890144
-0.0106985
-0.0123657
-0.0139032
-0.0153145
-0.0166051
-0.0177821
-0.0188535
-0.0198274
-0.0207122
-0.0215155
-0.0222442
-0.0229045
-0.0235019
-0.0240409
-0.0245249
-0.0249564
-0.0253377
-0.0256706
-0.0259563
-0.0261961
-0.0263911
-0.0265425
-0.0266515
-0.0267198
-0.0267489
-0.0267409
-0.0266979
-0.0266222
-0.0265164
-0.026383
-0.0262248
-0.0260445
-0.0258447
-0.0256281
-0.0253971
-0.0251542
-0.0249016
-0.0246413
-0.0243752
-0.024105
-0.023832
-0.0235577
-0.023283
-0.0230091
-0.0227366
-0.0224663
-0.0221986
-0.0219338
-0.0216724
-0.0214145
-0.0211601
-0.0209093
-0.0206622
-0.0204186
-0.0201784
-0.0199414
-0.0197077
-0.0194769
-0.0192488
-0.0190232
-0.0187999
-0.0185787
-0.0183593
-0.0181413
-0.0179247
-0.0177091
-0.0174943
-0.01728
-0.0170661
-0.0168524
-0.0166385
-0.0164244
-0.0162098
-0.0159946
-0.0157786
-0.0155615
-0.0153433
-0.0151237
-0.0149025
-0.0146795
-0.0144544
-0.0142268
-0.0139962
-0.0137618
-0.0135226
-0.0132766
-0.013021
-0.0127519
-0.0124637
-0.0121534
-0.0118288
-0.0114738
-0.011055
-0.0583684
-0.0582001
-0.0580574
-0.0580032
-0.0580358
-0.058145
-0.0583204
-0.0585476
-0.0588084
-0.0590827
-0.0593517
-0.0596002
-0.0598182
-0.0600024
-0.0601562
-0.0602893
-0.0604171
-0.0605594
-0.0607392
-0.0609817
-0.061313
-0.0617604
-0.062351
-0.0631124
-0.0640715
-0.0652537
-0.0666806
-0.0683679
-0.0703222
-0.072538
-0.0749959
-0.0776606
-0.0804807
-0.08339
-0.0863093
-0.08915
-0.0918174
-0.0942154
-0.0962504
-0.097835
-0.0988915
-0.0993541
-0.0991714
-0.0983072
-0.0967418
-0.0944726
-0.0915111
-0.0878791
-0.0836158
-0.0787833
-0.073451
-0.0676927
-0.0615896
-0.0552282
-0.0486986
-0.0420924
-0.0355002
-0.0290104
-0.022707
-0.0166686
-0.0109668
-0.00566524
-0.000818952
0.00352664
0.0073361
0.0105843
0.0132568
0.0153496
0.0168689
0.0178312
0.0182619
0.018195
0.0176716
0.0167388
0.0154482
0.0138542
0.0120126
0.00997833
0.00780544
0.00554534
0.00324507
0.000946248
-0.00131548
-0.00351049
-0.00561521
-0.00761197
-0.00948849
-0.0112383
-0.0128579
-0.0143483
-0.0157137
-0.0169602
-0.0180955
-0.019128
-0.0200664
-0.020919
-0.0216937
-0.0223975
-0.0230365
-0.0236158
-0.0241397
-0.0246112
-0.0250326
-0.0254056
-0.0257317
-0.0260118
-0.0262468
-0.0264376
-0.0265852
-0.0266906
-0.0267554
-0.0267811
-0.0267697
-0.0267234
-0.0266444
-0.0265354
-0.0263989
-0.0262377
-0.0260546
-0.0258523
-0.0256334
-0.0254004
-0.0251557
-0.0249015
-0.0246399
-0.0243727
-0.0241016
-0.0238279
-0.0235531
-0.0232781
-0.023004
-0.0227314
-0.022461
-0.0221934
-0.0219288
-0.0216675
-0.0214097
-0.0211556
-0.0209051
-0.0206582
-0.0204148
-0.0201748
-0.0199382
-0.0197047
-0.0194741
-0.0192463
-0.019021
-0.0187979
-0.0185769
-0.0183576
-0.0181399
-0.0179234
-0.017708
-0.0174933
-0.0172792
-0.0170654
-0.0168517
-0.016638
-0.0164239
-0.0162095
-0.0159943
-0.0157784
-0.0155615
-0.0153434
-0.0151239
-0.0149029
-0.01468
-0.0144551
-0.0142278
-0.0139975
-0.0137637
-0.0135253
-0.0132808
-0.0130282
-0.0127641
-0.0124843
-0.0121868
-0.011874
-0.0115353
-0.0111726
-0.0576649
-0.0575302
-0.0574344
-0.0574369
-0.0575343
-0.057714
-0.0579612
-0.0582567
-0.0585778
-0.0589013
-0.0592068
-0.0594796
-0.0597116
-0.0599027
-0.0600615
-0.0602042
-0.060354
-0.0605401
-0.0607956
-0.0611574
-0.0616644
-0.0623568
-0.0632752
-0.0644584
-0.0659418
-0.0677537
-0.0699124
-0.0724221
-0.0752704
-0.0784262
-0.081839
-0.0854403
-0.0891457
-0.0928589
-0.0964759
-0.0998899
-0.102996
-0.105693
-0.107891
-0.109511
-0.110485
-0.110762
-0.110305
-0.109093
-0.107122
-0.104399
-0.100948
-0.0968059
-0.0920309
-0.0866879
-0.0808492
-0.0745954
-0.0680135
-0.0611949
-0.0542332
-0.0472224
-0.0402544
-0.0334179
-0.0267966
-0.0204679
-0.0145017
-0.00895996
-0.0038954
0.000648573
0.00463851
0.00805118
0.0108737
0.0131036
0.0147485
0.0158258
0.0163622
0.0163925
0.015959
0.0151097
0.0138965
0.0123751
0.0106024
0.00863445
0.00652574
0.00432807
0.00208893
-0.000149758
-0.00235202
-0.00448802
-0.00653411
-0.00847268
-0.0102918
-0.0119844
-0.0135477
-0.0149833
-0.0162955
-0.0174909
-0.0185775
-0.0195641
-0.0204598
-0.021273
-0.022012
-0.0226836
-0.0232939
-0.0238478
-0.0243493
-0.0248011
-0.0252052
-0.0255631
-0.0258756
-0.0261435
-0.0263673
-0.0265477
-0.0266855
-0.0267816
-0.0268375
-0.0268546
-0.026835
-0.0267807
-0.0266942
-0.0265781
-0.0264349
-0.0262676
-0.0260788
-0.0258713
-0.0256478
-0.0254107
-0.0251624
-0.0249052
-0.024641
-0.0243716
-0.0240987
-0.0238236
-0.0235477
-0.0232719
-0.0229971
-0.0227241
-0.0224535
-0.0221857
-0.0219211
-0.02166
-0.0214024
-0.0211485
-0.0208983
-0.0206517
-0.0204087
-0.0201691
-0.0199329
-0.0196997
-0.0194695
-0.0192421
-0.0190171
-0.0187944
-0.0185737
-0.0183548
-0.0181373
-0.0179211
-0.0177059
-0.0174915
-0.0172776
-0.017064
-0.0168505
-0.0166369
-0.0164231
-0.0162087
-0.0159937
-0.0157779
-0.0155612
-0.0153432
-0.0151239
-0.0149031
-0.0146805
-0.0144559
-0.014229
-0.0139992
-0.0137662
-0.013529
-0.0132866
-0.0130374
-0.0127792
-0.012509
-0.0122248
-0.0119232
-0.0115988
-0.011287
-0.0565737
-0.0564958
-0.0564712
-0.0565489
-0.0567248
-0.0569847
-0.0573107
-0.0576806
-0.0580697
-0.0584543
-0.0588154
-0.0591408
-0.059427
-0.0596805
-0.0599176
-0.0601638
-0.0604531
-0.0608263
-0.0613301
-0.0620151
-0.0629343
-0.0641406
-0.0656837
-0.0676063
-0.0699402
-0.0727015
-0.0758873
-0.0794733
-0.0834122
-0.0876358
-0.092057
-0.0965742
-0.101076
-0.105449
-0.109576
-0.11335
-0.116669
-0.119442
-0.12159
-0.12305
-0.123768
-0.123708
-0.122848
-0.121178
-0.118704
-0.115447
-0.111441
-0.106738
-0.101398
-0.0954908
-0.0890968
-0.0823029
-0.075202
-0.0678901
-0.0604645
-0.0530212
-0.0456538
-0.0384509
-0.0314955
-0.0248635
-0.0186227
-0.0128327
-0.00754354
-0.00279616
0.00137852
0.00495953
0.00793606
0.0103074
0.0120829
0.0132814
0.013931
0.0140678
0.0137343
0.01298
0.0118589
0.0104269
0.00874058
0.00685684
0.0048313
0.00271596
0.000558218
-0.00159997
-0.00372264
-0.00578006
-0.00774875
-0.0096113
-0.0113559
-0.0129762
-0.0144692
-0.0158368
-0.0170836
-0.0182165
-0.0192438
-0.0201744
-0.0210174
-0.0217818
-0.0224755
-0.0231056
-0.023678
-0.0241974
-0.0246676
-0.025091
-0.0254694
-0.0258039
-0.0260948
-0.0263428
-0.0265482
-0.0267113
-0.0268328
-0.0269136
-0.0269549
-0.0269583
-0.0269257
-0.0268593
-0.0267614
-0.0266347
-0.0264818
-0.0263057
-0.0261089
-0.0258943
-0.0256645
-0.025422
-0.025169
-0.0249078
-0.0246402
-0.0243681
-0.024093
-0.0238162
-0.0235389
-0.0232621
-0.0229867
-0.0227133
-0.0224425
-0.0221747
-0.0219103
-0.0216494
-0.0213922
-0.0211387
-0.0208889
-0.0206428
-0.0204003
-0.0201613
-0.0199256
-0.019693
-0.0194633
-0.0192364
-0.0190119
-0.0187897
-0.0185694
-0.0183509
-0.0181338
-0.017918
-0.0177031
-0.017489
-0.0172754
-0.0170621
-0.0168488
-0.0166355
-0.0164218
-0.0162077
-0.0159929
-0.0157773
-0.0155607
-0.015343
-0.0151239
-0.0149034
-0.0146811
-0.0144569
-0.0142304
-0.0140013
-0.0137692
-0.0135334
-0.0132934
-0.013048
-0.0127958
-0.0125347
-0.0122627
-0.0119713
-0.011658
-0.0113845
-0.0550619
-0.0550618
-0.0551274
-0.0552912
-0.0555502
-0.0558911
-0.0562957
-0.0567415
-0.0572049
-0.0576653
-0.058108
-0.058527
-0.0589271
-0.0593241
-0.0597448
-0.0602269
-0.0608171
-0.0615701
-0.0625463
-0.0638089
-0.0654204
-0.0674382
-0.0699089
-0.0728639
-0.0763138
-0.0802455
-0.0846201
-0.0893741
-0.0944217
-0.0996599
-0.104973
-0.110241
-0.115342
-0.120158
-0.12458
-0.128508
-0.131854
-0.13454
-0.136504
-0.137692
-0.138067
-0.137602
-0.136283
-0.13411
-0.131098
-0.127279
-0.122696
-0.117403
-0.111467
-0.104967
-0.0979905
-0.090631
-0.0829877
-0.075162
-0.067255
-0.0593656
-0.0515885
-0.0440126
-0.03672
-0.0297845
-0.0232718
-0.0172382
-0.011731
-0.00678779
-0.00243662
0.00130433
0.00442682
0.00693251
0.00883308
0.0101491
0.0109097
0.0111531
0.0109248
0.0102742
0.00925445
0.00792219
0.00633631
0.00455443
0.00263193
0.000620568
-0.00143258
-0.00348597
-0.00550412
-0.00745786
-0.00932437
-0.0110868
-0.0127341
-0.0142598
-0.0156618
-0.0169421
-0.0181056
-0.0191593
-0.0201116
-0.0209715
-0.0217481
-0.0224504
-0.0230862
-0.0236625
-0.0241852
-0.0246589
-0.0250868
-0.0254712
-0.0258139
-0.0261152
-0.0263757
-0.0265954
-0.0267745
-0.026913
-0.0270116
-0.0270711
-0.0270924
-0.0270773
-0.0270276
-0.0269453
-0.0268329
-0.026693
-0.0265283
-0.0263415
-0.0261354
-0.0259126
-0.0256757
-0.0254271
-0.0251691
-0.0249037
-0.0246327
-0.0243579
-0.0240807
-0.0238024
-0.0235241
-0.0232466
-0.0229709
-0.0226974
-0.0224268
-0.0221593
-0.0218954
-0.021635
-0.0213785
-0.0211257
-0.0208767
-0.0206314
-0.0203896
-0.0201514
-0.0199164
-0.0196846
-0.0194556
-0.0192293
-0.0190055
-0.0187839
-0.0185642
-0.0183462
-0.0181297
-0.0179143
-0.0176999
-0.0174861
-0.0172729
-0.0170599
-0.0168469
-0.0166338
-0.0164204
-0.0162065
-0.015992
-0.0157766
-0.0155602
-0.0153427
-0.0151239
-0.0149036
-0.0146817
-0.0144579
-0.0142319
-0.0140036
-0.0137725
-0.0135383
-0.0133007
-0.013059
-0.0128121
-0.0125586
-0.012296
-0.0120131
-0.0117075
-0.0114572
-0.0531372
-0.0532315
-0.0533995
-0.053652
-0.0539903
-0.0544061
-0.0548844
-0.0554064
-0.0559536
-0.0565117
-0.0570742
-0.057645
-0.0582398
-0.0588865
-0.0596252
-0.0605069
-0.0615918
-0.0629471
-0.0646428
-0.0667474
-0.0693219
-0.0724134
-0.0760496
-0.0802334
-0.08494
-0.0901168
-0.0956851
-0.101545
-0.107581
-0.11367
-0.119683
-0.125499
-0.130998
-0.136075
-0.140631
-0.144582
-0.147851
-0.150374
-0.152099
-0.152982
-0.152992
-0.152109
-0.150324
-0.147643
-0.144094
-0.13971
-0.134538
-0.128641
-0.122094
-0.114985
-0.107409
-0.0994679
-0.091268
-0.0829166
-0.0745194
-0.0661785
-0.0579901
-0.0500435
-0.0424193
-0.0351896
-0.0284168
-0.0221541
-0.016445
-0.0113236
-0.00681442
-0.00293206
0.000318682
0.00294219
0.00495211
0.00637277
0.00723724
0.00758353
0.00745603
0.00690625
0.0059907
0.00476763
0.00329585
0.00163302
-0.000165779
-0.00204932
-0.0039713
-0.00589117
-0.00777459
-0.00959365
-0.0113267
-0.0129583
-0.014478
-0.0158802
-0.0171638
-0.0183311
-0.0193873
-0.0203394
-0.0211959
-0.0219655
-0.0226575
-0.0232805
-0.0238422
-0.0243496
-0.0248081
-0.0252222
-0.0255949
-0.0259284
-0.0262237
-0.0264814
-0.0267016
-0.026884
-0.0270286
-0.0271355
-0.0272048
-0.0272373
-0.027234
-0.0271962
-0.0271259
-0.0270251
-0.026896
-0.0267413
-0.0265635
-0.0263653
-0.0261493
-0.0259181
-0.0256741
-0.0254197
-0.025157
-0.0248879
-0.0246141
-0.0243372
-0.0240586
-0.0237795
-0.0235008
-0.0232233
-0.0229479
-0.022675
-0.0224052
-0.0221386
-0.0218757
-0.0216164
-0.021361
-0.0211093
-0.0208614
-0.0206172
-0.0203766
-0.0201394
-0.0199055
-0.0196746
-0.0194466
-0.0192212
-0.0189982
-0.0187773
-0.0185583
-0.018341
-0.018125
-0.0179102
-0.0176963
-0.017483
-0.0172701
-0.0170575
-0.0168449
-0.0166321
-0.016419
-0.0162054
-0.015991
-0.0157759
-0.0155597
-0.0153424
-0.0151239
-0.0149039
-0.0146823
-0.0144589
-0.0142335
-0.0140059
-0.0137759
-0.0135432
-0.0133076
-0.0130689
-0.0128263
-0.0125781
-0.0123217
-0.0120455
-0.0117442
-0.0115036
-0.050865
-0.0510631
-0.0513371
-0.0516735
-0.0520816
-0.0525633
-0.0531109
-0.0537133
-0.0543607
-0.0550489
-0.0557832
-0.05658
-0.0574685
-0.0584905
-0.0596998
-0.0611602
-0.0629426
-0.0651205
-0.0677648
-0.0709367
-0.074681
-0.0790195
-0.0839464
-0.0894258
-0.0953928
-0.101757
-0.108407
-0.115219
-0.122065
-0.128815
-0.135347
-0.141544
-0.147303
-0.15253
-0.15714
-0.161059
-0.164223
-0.166573
-0.168062
-0.168652
-0.168314
-0.167031
-0.164798
-0.16163
-0.157554
-0.152608
-0.146847
-0.140341
-0.133177
-0.12545
-0.117265
-0.108733
-0.099969
-0.0910866
-0.0821973
-0.0734065
-0.0648126
-0.0565047
-0.0485625
-0.0410552
-0.0340422
-0.0275728
-0.0216864
-0.0164128
-0.0117719
-0.00777462
-0.0044227
-0.00170617
0.000393924
0.00190153
0.00284906
0.00327868
0.00323987
0.00278671
0.00197673
0.000869067
-0.000477058
-0.00200401
-0.00365722
-0.00538644
-0.00714679
-0.00889945
-0.0106121
-0.0122588
-0.0138201
-0.0152827
-0.016637
-0.0178797
-0.0190104
-0.0200323
-0.0209507
-0.021773
-0.0225074
-0.0231626
-0.0237475
-0.0242704
-0.0247388
-0.0251591
-0.0255368
-0.0258757
-0.0261788
-0.0264478
-0.0266837
-0.0268865
-0.0270563
-0.0271925
-0.0272948
-0.027363
-0.0273971
-0.0273977
-0.0273655
-0.027302
-0.0272086
-0.0270873
-0.0269403
-0.02677
-0.0265788
-0.0263691
-0.0261436
-0.0259045
-0.0256542
-0.0253949
-0.0251284
-0.0248566
-0.0245811
-0.0243032
-0.0240243
-0.0237453
-0.0234672
-0.0231908
-0.0229166
-0.0226451
-0.0223768
-0.0221119
-0.0218507
-0.0215931
-0.0213393
-0.0210893
-0.0208431
-0.0206004
-0.0203612
-0.0201254
-0.0198928
-0.0196632
-0.0194363
-0.019212
-0.01899
-0.01877
-0.0185519
-0.0183353
-0.0181201
-0.0179059
-0.0176925
-0.0174797
-0.0172673
-0.0170551
-0.0168428
-0.0166304
-0.0164176
-0.0162042
-0.0159901
-0.0157752
-0.0155592
-0.0153422
-0.0151239
-0.0149041
-0.0146828
-0.0144598
-0.0142349
-0.0140079
-0.0137788
-0.0135473
-0.0133134
-0.0130769
-0.0128369
-0.0125919
-0.0123387
-0.0120669
-0.0117675
-0.011527
-0.0483756
-0.0486779
-0.049053
-0.0494629
-0.0499297
-0.0504694
-0.0510859
-0.0517792
-0.052552
-0.0534135
-0.0543827
-0.055491
-0.0567817
-0.0583107
-0.0601435
-0.0623527
-0.0650132
-0.0681953
-0.0719586
-0.0763436
-0.0813657
-0.0870106
-0.0932328
-0.0999572
-0.107084
-0.114494
-0.12206
-0.12965
-0.137134
-0.144392
-0.151311
-0.157789
-0.163737
-0.169071
-0.173718
-0.177609
-0.180684
-0.182889
-0.184177
-0.18451
-0.18386
-0.182211
-0.17956
-0.175927
-0.171341
-0.165843
-0.159498
-0.152388
-0.144606
-0.136258
-0.127462
-0.118338
-0.10901
-0.0995994
-0.0902242
-0.0809938
-0.0720084
-0.0633573
-0.0551186
-0.0473589
-0.0401338
-0.033488
-0.0274563
-0.0220635
-0.017326
-0.0132477
-0.00982374
-0.00704408
-0.0048901
-0.00333157
-0.00232917
-0.00183668
-0.00180191
-0.00216832
-0.00287647
-0.00386584
-0.00507658
-0.0064511
-0.00793566
-0.00948153
-0.0110459
-0.0125927
-0.0140923
-0.0155222
-0.016866
-0.0181131
-0.0192571
-0.0202965
-0.0212326
-0.0220695
-0.0228135
-0.0234719
-0.0240528
-0.0245649
-0.0250165
-0.0254153
-0.0257683
-0.0260816
-0.02636
-0.026607
-0.0268251
-0.0270159
-0.0271797
-0.0273166
-0.0274261
-0.0275074
-0.0275599
-0.0275832
-0.027577
-0.0275415
-0.0274774
-0.0273856
-0.0272674
-0.0271246
-0.0269591
-0.0267731
-0.0265688
-0.0263483
-0.0261141
-0.0258683
-0.0256129
-0.0253498
-0.0250809
-0.0248078
-0.0245318
-0.0242543
-0.0239763
-0.0236988
-0.0234225
-0.0231481
-0.0228762
-0.0226071
-0.0223413
-0.0220789
-0.02182
-0.0215649
-0.0213134
-0.0210656
-0.0208214
-0.0205808
-0.0203435
-0.0201095
-0.0198785
-0.0196504
-0.0194249
-0.0192019
-0.018981
-0.0187622
-0.018545
-0.0183293
-0.0181148
-0.0179013
-0.0176886
-0.0174764
-0.0172645
-0.0170527
-0.0168409
-0.0166287
-0.0164162
-0.0162031
-0.0159892
-0.0157745
-0.0155588
-0.0153419
-0.0151238
-0.0149042
-0.0146832
-0.0144604
-0.0142359
-0.0140094
-0.0137809
-0.0135503
-0.0133174
-0.0130821
-0.0128434
-0.0125996
-0.0123471
-0.0120777
-0.0117789
-0.0115329
-0.0458557
-0.0462533
-0.046717
-0.0471876
-0.0477028
-0.0482964
-0.0489871
-0.0497891
-0.05072
-0.0518043
-0.0530765
-0.0545826
-0.0563799
-0.0585353
-0.0611221
-0.0642147
-0.0678824
-0.0721819
-0.0771495
-0.0827949
-0.0890968
-0.0960021
-0.103428
-0.111268
-0.119398
-0.127687
-0.136002
-0.144215
-0.152206
-0.159867
-0.167099
-0.173815
-0.179932
-0.185376
-0.190078
-0.193972
-0.196998
-0.199101
-0.200232
-0.200351
-0.199429
-0.197448
-0.194413
-0.190341
-0.185262
-0.179229
-0.172315
-0.164609
-0.156218
-0.147258
-0.137859
-0.128152
-0.118272
-0.108348
-0.0985058
-0.0888579
-0.0795068
-0.0705419
-0.0620393
-0.0540623
-0.0466622
-0.0398786
-0.0337424
-0.0282719
-0.0234752
-0.0193551
-0.0159072
-0.0131144
-0.0109494
-0.00937627
-0.00835127
-0.00782378
-0.00773769
-0.00803296
-0.00864749
-0.00951893
-0.0105865
-0.0117929
-0.0130853
-0.014417
-0.0157481
-0.017046
-0.0182852
-0.0194474
-0.0205211
-0.0214991
-0.0223801
-0.0231648
-0.0238571
-0.0244628
-0.024989
-0.0254437
-0.0258351
-0.0261712
-0.0264597
-0.0267078
-0.0269216
-0.0271063
-0.027266
-0.0274039
-0.0275216
-0.0276203
-0.0277001
-0.0277603
-0.0278003
-0.0278189
-0.0278151
-0.027788
-0.0277371
-0.0276622
-0.0275636
-0.0274418
-0.0272979
-0.0271332
-0.0269494
-0.0267482
-0.0265315
-0.0263013
-0.0260596
-0.0258083
-0.0255492
-0.0252839
-0.0250141
-0.0247411
-0.0244661
-0.0241903
-0.0239146
-0.0236397
-0.0233664
-0.0230953
-0.0228267
-0.022561
-0.0222985
-0.0220394
-0.0217838
-0.0215317
-0.0212832
-0.0210382
-0.0207966
-0.0205584
-0.0203234
-0.0200915
-0.0198625
-0.0196362
-0.0194124
-0.0191908
-0.0189714
-0.0187537
-0.0185377
-0.018323
-0.0181094
-0.0178967
-0.0176846
-0.017473
-0.0172617
-0.0170504
-0.0168389
-0.0166272
-0.0164149
-0.0162021
-0.0159885
-0.0157739
-0.0155584
-0.0153416
-0.0151236
-0.0149042
-0.0146833
-0.0144607
-0.0142364
-0.0140102
-0.0137821
-0.0135518
-0.0133194
-0.0130843
-0.0128457
-0.0126015
-0.0123482
-0.0120795
-0.0117804
-0.0115271
-0.0435247
-0.0439991
-0.044533
-0.0450507