/*--------------------------------*- C++ -*----------------------------------*\
  =========                 |
  \\      /  F ield         | OpenFOAM: The Open Source CFD Toolbox
   \\    /   O peration     | Website:  https://openfoam.org
    \\  /    A nd           | Version:  8
     \\/     M anipulation  |
\*---------------------------------------------------------------------------*/
FoamFile
{
    version     2.0;
    format      ascii;
    class       surfaceScalarField;
    location    "0.34";
    object      phi;
}
// * * * * * * * * * * * * * * * * * * * * * * * * * * * * * * * * * * * * * //

dimensions      [0 3 -1 0 0 0 0];

internalField   nonuniform List<scalar> 
24170
(
2.2017e-11
-2.2017e-11
2.09873e-11
1.0297e-12
-1.03107e-12
2.20184e-11
-2.99612e-11
2.89302e-11
-5.2199e-11
2.22377e-11
-5.56229e-11
3.42389e-12
-2.69207e-11
-2.87022e-11
4.97526e-11
-7.66733e-11
1.91117e-10
-1.41364e-10
4.10306e-10
-2.1919e-10
7.10153e-10
-2.99847e-10
1.07764e-09
-3.67482e-10
1.48271e-09
-4.05073e-10
1.88353e-09
-4.00819e-10
2.2338e-09
-3.50272e-10
2.4594e-09
-2.25603e-10
2.40537e-09
5.40296e-11
2.73566e-09
-3.3029e-10
5.00829e-11
-7.20999e-11
3.32236e-11
1.7889e-11
-4.72224e-11
1.02464e-10
-1.48266e-10
1.29973e-10
-2.28189e-10
1.02161e-10
-2.48849e-10
2.40838e-11
-1.69494e-10
-1.08057e-10
5.62916e-11
-3.02459e-10
4.75386e-10
-5.60458e-10
1.1215e-09
-8.65303e-10
1.997e-09
-1.17534e-09
3.05764e-09
-1.42813e-09
4.20863e-09
-1.55606e-09
5.31402e-09
-1.50621e-09
6.20364e-09
-1.23989e-09
6.62096e-09
-6.42924e-10
5.84435e-09
8.3064e-10
6.83882e-09
1.7412e-09
6.40798e-11
-1.3618e-10
1.51237e-11
6.68451e-11
-1.41682e-10
2.5927e-10
-3.3378e-10
3.22071e-10
-4.89141e-10
2.57522e-10
-5.41002e-10
7.59443e-11
-4.19506e-10
-2.29553e-10
-4.7949e-11
-6.74016e-10
6.47925e-10
-1.25633e-09
1.71747e-09
-1.93485e-09
3.15652e-09
-2.61439e-09
4.88352e-09
-3.15513e-09
6.73195e-09
-3.40448e-09
8.45905e-09
-3.23332e-09
9.74575e-09
-2.52659e-09
1.01202e-08
-1.01738e-09
8.59917e-09
2.35168e-09
1.15433e-08
3.89474e-09
6.37945e-11
-1.99974e-10
-3.38878e-11
1.64528e-10
-2.83949e-10
5.09332e-10
-5.85435e-10
6.23557e-10
-8.34909e-10
5.06996e-10
-9.35501e-10
1.76536e-10
-7.87875e-10
-3.77179e-10
-2.86909e-10
-1.17498e-09
6.64725e-10
-2.20797e-09
2.12628e-09
-3.39641e-09
4.0814e-09
-4.5695e-09
6.40731e-09
-5.48105e-09
8.86343e-09
-5.8606e-09
1.10979e-08
-5.46778e-09
1.26459e-08
-4.07461e-09
1.28737e-08
-1.24523e-09
1.08397e-08
4.38578e-09
1.64431e-08
5.93984e-09
5.07938e-11
-2.50768e-10
-1.09053e-10
3.24374e-10
-4.64945e-10
8.65225e-10
-8.90494e-10
1.04911e-09
-1.25136e-09
8.67862e-10
-1.42046e-09
3.45637e-10
-1.27016e-09
-5.27482e-10
-6.70478e-10
-1.77466e-09
4.93347e-10
-3.37179e-09
2.28424e-09
-5.1873e-09
4.66953e-09
-6.95479e-09
7.48513e-09
-8.29665e-09
1.04213e-08
-8.79677e-09
1.30291e-08
-8.07555e-09
1.4729e-08
-5.77456e-09
1.48105e-08
-1.32673e-09
1.25054e-08
6.69094e-09
2.12351e-08
7.71338e-09
2.93881e-11
-2.80156e-10
-1.98443e-10
5.52205e-10
-6.64096e-10
1.33088e-09
-1.22068e-09
1.60569e-09
-1.70545e-09
1.35263e-09
-1.96277e-09
6.02963e-10
-1.8397e-09
-6.50558e-10
-1.18668e-09
-2.42768e-09
1.21697e-10
-4.68016e-09
2.14649e-09
-7.2121e-09
4.83682e-09
-9.64513e-09
7.99224e-09
-1.14521e-08
1.12474e-08
-1.20519e-08
1.40818e-08
-1.09099e-08
1.58485e-08
-7.54127e-09
1.58371e-08
-1.31529e-09
1.34885e-08
9.03955e-09
2.56825e-08
9.04103e-09
7.33398e-12
-2.8749e-10
-2.82596e-10
8.42135e-10
-8.48288e-10
1.89657e-09
-1.5303e-09
2.2877e-09
-2.14242e-09
1.96475e-09
-2.50434e-09
9.64888e-10
-2.44278e-09
-7.12121e-10
-1.79554e-09
-3.07493e-09
-4.33957e-10
-6.04175e-09
1.69631e-09
-9.34236e-09
4.52781e-09
-1.24766e-08
7.83438e-09
-1.47586e-08
1.12172e-08
-1.54347e-08
1.41201e-08
-1.38129e-08
1.58812e-08
-9.30237e-09
1.5848e-08
-1.28205e-09
1.36577e-08
1.12298e-08
2.95945e-08
9.74571e-09
-6.47369e-12
-2.81016e-10
-3.35177e-10
1.17084e-09
-9.72474e-10
2.53387e-09
-1.7565e-09
3.07173e-09
-2.48539e-09
2.69364e-09
-2.96061e-09
1.4401e-09
-2.99565e-09
-6.77081e-10
-2.42406e-09
-3.64651e-09
-1.12161e-09
-7.3442e-09
9.55996e-10
-1.142e-08
3.72974e-09
-1.52504e-08
6.96426e-09
-1.79932e-08
1.02563e-08
-1.87268e-08
1.30565e-08
-1.6613e-08
1.47385e-08
-1.09844e-08
1.47455e-08
-1.28913e-09
1.28769e-08
1.30985e-08
3.28175e-08
9.65378e-09
-8.44408e-13
-2.80172e-10
-3.25679e-10
1.49567e-09
-9.83686e-10
3.19187e-09
-1.82398e-09
3.91203e-09
-2.64008e-09
3.50974e-09
-3.22457e-09
2.02459e-09
-3.38707e-09
-5.14581e-10
-2.96636e-09
-4.06722e-09
-1.85016e-09
-8.4604e-09
-6.15056e-12
-1.3264e-08
2.48382e-09
-1.77403e-08
5.39585e-09
-2.09052e-08
8.35619e-09
-2.16871e-08
1.08665e-08
-1.91233e-08
1.23811e-08
-1.2499e-08
1.24607e-08
-1.36878e-09
1.10273e-08
1.4532e-08
3.52355e-08
8.60928e-09
3.44222e-11
-3.14594e-10
-2.24746e-10
1.75484e-09
-8.29316e-10
3.79644e-09
-1.6555e-09
4.73821e-09
-2.50656e-09
4.3608e-09
-3.17868e-09
2.69671e-09
-3.48904e-09
-2.0422e-10
-3.29186e-09
-4.2644e-09
-2.49382e-09
-9.25844e-09
-1.07455e-09
-1.46832e-08
8.91308e-10
-1.97062e-08
3.215e-09
-2.32289e-08
5.58781e-09
-2.40599e-08
7.60475e-09
-2.11403e-08
8.83836e-09
-1.37326e-08
8.9783e-09
-1.50872e-09
8.03547e-09
1.54748e-08
3.67751e-08
6.49586e-09
1.05957e-10
-4.20552e-10
-1.17956e-11
1.87259e-09
-4.69716e-10
4.25436e-09
-1.18862e-09
5.45712e-09
-1.99886e-09
5.17104e-09
-2.71564e-09
3.41349e-09
-3.17702e-09
2.57161e-10
-3.26308e-09
-4.17834e-09
-2.90566e-09
-9.61585e-09
-2.09516e-09
-1.54938e-08
-8.88225e-10
-2.09131e-08
5.83838e-10
-2.47009e-08
2.11087e-09
-2.5587e-08
3.41899e-09
-2.24484e-08
4.228e-09
-1.45416e-08
4.3635e-09
-1.64423e-09
3.90265e-09
1.59357e-08
3.74148e-08
3.26298e-09
1.72989e-10
-5.93541e-10
2.42052e-10
1.80353e-09
4.60723e-11
4.45034e-09
-3.95679e-10
5.89887e-09
-9.7568e-10
5.75104e-09
-1.56597e-09
4.00377e-09
-2.0571e-09
7.48293e-10
-2.37571e-09
-3.85973e-09
-2.4877e-09
-9.50386e-09
-2.39224e-09
-1.55892e-08
-2.11614e-09
-2.11892e-08
-1.71198e-09
-2.51051e-08
-1.26074e-09
-2.60382e-08
-8.6872e-10
-2.28404e-08
-6.40356e-10
-1.47699e-08
-6.16688e-10
-1.66789e-09
-6.90596e-10
1.60096e-08
3.72905e-08
-5.6625e-10
3.12789e-10
-9.0633e-10
6.3535e-10
1.48097e-09
7.00986e-10
4.38471e-09
4.66456e-10
6.1334e-09
5.17365e-13
6.21698e-09
-5.96535e-10
4.60083e-09
-1.2418e-09
1.39356e-09
-1.88973e-09
-3.21181e-09
-2.53127e-09
-8.86232e-09
-3.17275e-09
-1.49477e-08
-3.81621e-09
-2.05458e-08
-4.44684e-09
-2.44745e-08
-5.03538e-09
-2.54497e-08
-5.54736e-09
-2.23284e-08
-5.94056e-09
-1.43767e-08
-6.13578e-09
-1.47268e-09
-5.96613e-09
1.58399e-08
3.64763e-08
-5.15195e-09
5.14709e-10
-1.42104e-09
1.24019e-09
7.55486e-10
1.76729e-09
3.85761e-09
1.95442e-09
5.94626e-09
1.79288e-09
6.37852e-09
1.31855e-09
5.07515e-09
5.56789e-10
2.15532e-09
-5.01485e-10
-2.15353e-09
-1.88535e-09
-7.47845e-09
-3.61222e-09
-1.32209e-08
-5.64731e-09
-1.85107e-08
-7.87698e-09
-2.22448e-08
-1.0109e-08
-2.32177e-08
-1.20981e-08
-2.03393e-08
-1.35802e-08
-1.28946e-08
-1.42965e-08
-7.56458e-10
-1.3989e-08
1.55325e-08
3.48861e-08
-1.23988e-08
7.57565e-10
-2.1786e-09
2.01814e-09
-5.05084e-10
3.21849e-09
2.65725e-09
4.08793e-09
5.07683e-09
4.49514e-09
5.97131e-09
4.36331e-09
5.20699e-09
3.61713e-09
2.9015e-09
2.16649e-09
-7.02886e-10
-7.83991e-11
-5.23357e-09
-3.15093e-09
-1.01483e-08
-6.97662e-09
-1.4685e-08
-1.13258e-08
-1.78956e-08
-1.58091e-08
-1.87345e-08
-1.99169e-08
-1.62315e-08
-2.30965e-08
-9.71498e-09
-2.48336e-08
9.80643e-10
-2.47291e-08
1.54279e-08
3.26715e-08
-2.25145e-08
9.61184e-10
-3.13979e-09
2.7616e-09
-2.3055e-09
4.73877e-09
6.80084e-10
6.49107e-09
3.32453e-09
7.73339e-09
4.72899e-09
8.23363e-09
4.70674e-09
7.77786e-09
3.35727e-09
6.16442e-09
9.10553e-10
3.21874e-09
-2.28788e-09
-1.11248e-09
-5.81712e-09
-6.74013e-09
-9.05734e-09
-1.33381e-08
-1.12977e-08
-2.03426e-08
-1.17299e-08
-2.69885e-08
-9.58558e-09
-3.24188e-08
-4.2847e-09
-3.58152e-08
4.37709e-09
-3.65535e-08
1.61662e-08
3.03952e-08
-3.42772e-08
9.84248e-10
-4.12404e-09
3.07588e-09
-4.39713e-09
5.66149e-09
-1.90552e-09
8.26182e-09
7.24201e-10
1.04527e-08
2.53811e-09
1.18402e-08
3.31919e-09
1.20644e-08
3.13309e-09
1.08055e-08
2.16947e-09
7.82701e-09
6.90616e-10
2.99233e-09
-9.82437e-10
-3.62587e-09
-2.43914e-09
-1.16692e-08
-3.25437e-09
-2.05244e-08
-2.8747e-09
-2.9287e-08
-8.22976e-10
-3.68952e-08
3.32345e-09
-4.22889e-08
9.77081e-09
-4.458e-08
1.84573e-08
2.90189e-08
-4.32037e-08
7.12576e-10
-4.83661e-09
2.62343e-09
-6.30799e-09
5.37217e-09
-4.65427e-09
8.47056e-09
-2.37419e-09
1.14547e-08
-4.46011e-10
1.38096e-08
9.64231e-10
1.5088e-08
1.85472e-09
1.49074e-08
2.35007e-09
1.29783e-08
2.61971e-09
9.137e-09
2.85888e-09
3.4153e-09
3.28257e-09
-3.95701e-09
4.11794e-09
-1.24394e-08
5.60767e-09
-2.12493e-08
7.98692e-09
-2.93829e-08
1.14571e-08
-3.57553e-08
1.61432e-08
-3.93527e-08
2.20547e-08
2.9057e-08
-3.93908e-08
2.48539e-10
-5.08515e-09
1.67059e-09
-7.73004e-09
4.22054e-09
-7.20422e-09
7.51787e-09
-5.67152e-09
1.10161e-08
-3.94421e-09
1.42436e-08
-2.2633e-09
1.67773e-08
-6.79012e-10
1.82748e-08
8.52602e-10
1.84925e-08
2.40202e-09
1.72984e-08
4.05293e-09
1.46897e-08
5.89134e-09
1.08104e-08
7.99719e-09
5.97858e-09
1.04395e-08
6.92958e-10
1.32725e-08
-4.38012e-09
1.65302e-08
-8.45673e-09
2.02198e-08
-1.07205e-08
2.43185e-08
2.87616e-08
-1.0425e-08
2.03789e-11
-5.10553e-09
7.4673e-10
-8.45639e-09
2.22342e-09
-8.68091e-09
4.22586e-09
-7.67396e-09
6.46457e-09
-6.18292e-09
8.69244e-09
-4.49117e-09
1.07148e-08
-2.70132e-09
1.24026e-08
-8.3529e-10
1.36819e-08
1.12275e-09
1.45316e-08
3.20327e-09
1.49822e-08
5.44074e-09
1.51157e-08
7.86369e-09
1.50658e-08
1.04894e-08
1.50173e-08
1.3321e-08
1.52019e-08
1.63456e-08
1.58867e-08
1.9535e-08
1.73582e-08
2.2847e-08
2.62276e-08
1.98922e-08
-1.45091e-10
-4.96044e-09
9.9471e-11
-8.70095e-09
8.29796e-10
-9.41123e-09
1.9304e-09
-8.77457e-09
3.2484e-09
-7.50092e-09
4.66359e-09
-5.90636e-09
6.09824e-09
-4.13597e-09
7.51228e-09
-2.24933e-09
8.89774e-09
-2.62714e-10
1.02719e-08
1.82911e-09
1.16767e-08
4.03599e-09
1.31747e-08
6.36563e-09
1.48473e-08
8.81682e-09
1.67912e-08
1.13771e-08
1.91142e-08
1.40226e-08
2.19303e-08
1.67189e-08
2.53524e-08
1.94248e-08
2.20951e-08
2.9485e-08
-4.25914e-10
-4.53453e-09
-8.67724e-10
-8.25914e-09
-1.09148e-09
-9.18748e-09
-1.07883e-09
-8.78721e-09
-8.55211e-10
-7.72455e-09
-4.36931e-10
-6.32464e-09
1.73189e-10
-4.74609e-09
9.83989e-10
-3.06013e-09
2.01502e-09
-1.29375e-09
3.29079e-09
5.53342e-10
4.84665e-09
2.48013e-09
6.72341e-09
4.48887e-09
8.96684e-09
6.5734e-09
1.16252e-08
8.71875e-09
1.47463e-08
1.09014e-08
1.83744e-08
1.30909e-08
2.25471e-08
1.5252e-08
1.73491e-08
2.72931e-08
-7.26569e-10
-3.80796e-09
-1.84913e-09
-7.13658e-09
-2.96469e-09
-8.07192e-09
-3.9292e-09
-7.8227e-09
-4.67259e-09
-6.98116e-09
-5.14804e-09
-5.84919e-09
-5.32107e-09
-4.57306e-09
-5.1644e-09
-3.21681e-09
-4.65557e-09
-1.80257e-09
-3.76956e-09
-3.32668e-10
-2.48425e-09
1.19481e-09
-7.75441e-10
2.78006e-09
1.38059e-09
4.41737e-09
4.00534e-09
6.09401e-09
7.11582e-09
7.79097e-09
1.07231e-08
9.48365e-09
1.48308e-08
1.11443e-08
1.27452e-08
1.94347e-08
-9.10142e-10
-2.89781e-09
-2.46322e-09
-5.5835e-09
-4.13906e-09
-6.39608e-09
-5.71421e-09
-6.24754e-09
-7.06672e-09
-5.62865e-09
-8.12399e-09
-4.79192e-09
-8.84225e-09
-3.8548e-09
-9.19364e-09
-2.86541e-09
-9.15819e-09
-1.83803e-09
-8.71833e-09
-7.72524e-10
-7.85809e-09
3.34571e-10
-6.56284e-09
1.48481e-09
-4.81993e-09
2.67446e-09
-2.62027e-09
3.89434e-09
4.08817e-11
5.12982e-09
3.16178e-09
6.36275e-09
6.7332e-09
7.57286e-09
8.73973e-09
1.07387e-08
-9.21242e-10
-1.97657e-09
-2.56841e-09
-3.93633e-09
-4.39996e-09
-4.56453e-09
-6.16443e-09
-4.48307e-09
-7.72614e-09
-4.06695e-09
-9.01228e-09
-3.50578e-09
-9.98417e-09
-2.88291e-09
-1.062e-08
-2.22962e-09
-1.09049e-08
-1.55313e-09
-1.08263e-08
-8.51107e-10
-1.03721e-08
-1.19564e-10
-9.53118e-09
6.43849e-10
-8.29421e-09
1.4375e-09
-6.65531e-09
2.25544e-09
-4.61342e-09
3.08793e-09
-2.17315e-09
3.92248e-09
6.54918e-10
4.7448e-09
5.54078e-09
3.85387e-09
-7.90878e-10
-1.18569e-09
-2.26042e-09
-2.46679e-09
-3.92755e-09
-2.8974e-09
-5.55333e-09
-2.8573e-09
-7.01396e-09
-2.60631e-09
-8.24942e-09
-2.27032e-09
-9.23118e-09
-1.90115e-09
-9.94442e-09
-1.51638e-09
-1.0379e-08
-1.11856e-09
-1.05254e-08
-7.04685e-10
-1.03738e-08
-2.71175e-10
-9.91416e-09
1.842e-10
-9.1378e-09
6.61137e-10
-8.03874e-09
1.15637e-09
-6.61488e-09
1.66408e-09
-4.86889e-09
2.17649e-09
-2.80872e-09
2.68462e-09
3.17961e-09
-4.47547e-10
-5.86518e-10
-5.99176e-10
-1.7278e-09
-1.32551e-09
-3.04763e-09
-1.57757e-09
-4.34497e-09
-1.55995e-09
-5.52194e-09
-1.42935e-09
-6.53566e-09
-1.2566e-09
-7.36789e-09
-1.06892e-09
-8.00974e-09
-8.7453e-10
-8.45461e-09
-6.7368e-10
-8.69536e-09
-4.63936e-10
-8.72378e-09
-2.42752e-10
-8.53106e-09
-8.52229e-12
-8.10893e-09
2.39005e-10
-7.45089e-09
4.9833e-10
-6.55331e-09
7.665e-10
-5.41619e-09
1.03937e-09
-4.04353e-09
1.31196e-09
1.57958e-09
-2.4435e-09
-3.70317e-10
-2.28859e-10
-1.14013e-09
-5.557e-10
-2.04829e-09
-6.69409e-10
-2.94563e-09
-6.62608e-10
-3.76553e-09
-6.09446e-10
-4.48176e-09
-5.40371e-10
-5.08437e-09
-4.66314e-10
-5.56879e-09
-3.90106e-10
-5.93109e-09
-3.11382e-10
-6.16625e-09
-2.28772e-10
-6.26806e-09
-1.40943e-10
-6.2295e-09
-4.70802e-11
-6.0437e-09
5.32023e-11
-5.70465e-09
1.59278e-10
-5.20821e-09
2.70061e-10
-4.55266e-09
3.8382e-10
-3.73901e-09
4.98312e-10
6.11431e-10
-2.77086e-09
-1.8279e-10
-4.60689e-11
-6.06412e-10
-1.32078e-10
-1.11521e-09
-1.60607e-10
-1.61902e-09
-1.58805e-10
-2.08185e-09
-1.46617e-10
-2.49101e-09
-1.31206e-10
-2.84235e-09
-1.14976e-10
-3.13404e-09
-9.84106e-11
-3.36413e-09
-8.12944e-11
-3.52969e-09
-6.32093e-11
-3.62687e-09
-4.37702e-11
-3.6512e-09
-2.27471e-11
-3.59805e-09
5.1759e-14
-3.46321e-09
2.44407e-11
-3.24339e-09
5.02372e-11
-2.9366e-09
7.70282e-11
-2.54248e-09
1.04197e-10
1.31022e-10
-2.06207e-09
-4.60689e-11
-1.78147e-10
-3.38753e-10
-4.97559e-10
-6.44175e-10
-7.75381e-10
-8.90357e-10
-9.88768e-10
-1.07006e-09
-1.13327e-09
-1.17704e-09
-1.19979e-09
-1.19974e-09
-1.1753e-09
-1.12506e-09
-1.04803e-09
-9.43835e-10
-8.12812e-10
5.8164e-11
-5.8164e-11
4.44007e-10
-3.85843e-10
1.20895e-09
-7.64939e-10
2.305e-09
-1.09606e-09
3.64352e-09
-1.33852e-09
5.11856e-09
-1.47504e-09
6.62145e-09
-1.50289e-09
8.05159e-09
-1.43013e-09
9.32434e-09
-1.27275e-09
1.03762e-08
-1.05184e-09
1.1167e-08
-7.9082e-10
1.16799e-08
-5.12872e-10
1.19185e-08
-2.38633e-10
1.19019e-08
1.66426e-11
1.16613e-08
2.40593e-10
1.12299e-08
4.31321e-10
1.06394e-08
5.90542e-10
9.91325e-09
7.26151e-10
9.06309e-09
8.50159e-10
8.08622e-09
9.76874e-10
6.96525e-09
1.12097e-09
5.66965e-09
1.2956e-09
4.15862e-09
1.51102e-09
2.38457e-09
1.77405e-09
2.96785e-10
2.08779e-09
-2.15557e-09
2.45236e-09
-5.02122e-09
2.86565e-09
-8.34439e-09
3.32317e-09
-1.2163e-08
3.81859e-09
-1.65074e-08
4.34437e-09
-2.13986e-08
4.89122e-09
-2.68466e-08
5.44797e-09
-3.28481e-08
6.00155e-09
-3.93852e-08
6.53712e-09
-4.64237e-08
7.03845e-09
-5.39121e-08
7.48846e-09
-6.17821e-08
7.86992e-09
-6.99484e-08
8.16629e-09
-7.83108e-08
8.36246e-09
-8.67564e-08
8.44558e-09
-9.51621e-08
8.40572e-09
-1.03399e-07
8.23641e-09
-1.11334e-07
7.93498e-09
-1.18836e-07
7.5027e-09
-1.25781e-07
6.94472e-09
-1.32051e-07
6.26978e-09
-1.3754e-07
5.48978e-09
-1.42159e-07
4.61899e-09
-1.45833e-07
3.67331e-09
-1.48503e-07
2.67047e-09
-1.50132e-07
1.62881e-09
-1.50698e-07
5.66e-10
-1.50201e-07
-4.97281e-10
-1.48645e-07
-1.55591e-09
-1.46072e-07
-2.57276e-09
-1.4253e-07
-3.54196e-09
-1.38079e-07
-4.45067e-09
-1.32791e-07
-5.28811e-09
-1.26746e-07
-6.04547e-09
-1.2003e-07
-6.71566e-09
-1.12737e-07
-7.29317e-09
-1.04963e-07
-7.77394e-09
-9.68079e-08
-8.15525e-09
-8.83722e-08
-8.43568e-09
-7.97572e-08
-8.61502e-09
-7.10629e-08
-8.69426e-09
-6.23874e-08
-8.67558e-09
-5.3825e-08
-8.5624e-09
-4.54656e-08
-8.35933e-09
-3.73934e-08
-8.07224e-09
-2.96852e-08
-7.70819e-09
-2.24098e-08
-7.27539e-09
-1.56267e-08
-6.7831e-09
-9.38522e-09
-6.24148e-09
-3.7239e-09
-5.66132e-09
1.32996e-09
-5.05386e-09
5.76139e-09
-4.43143e-09
9.56813e-09
-3.80674e-09
1.27553e-08
-3.18714e-09
1.53384e-08
-2.5831e-09
1.73433e-08
-2.00493e-09
1.88039e-08
-1.46058e-09
1.97606e-08
-9.56724e-10
2.02589e-08
-4.9828e-10
2.03473e-08
-8.84634e-11
2.00768e-08
2.70552e-10
1.94967e-08
5.80108e-10
1.86568e-08
8.39916e-10
1.76038e-08
1.05296e-09
1.63816e-08
1.22225e-09
1.50299e-08
1.35167e-09
1.35843e-08
1.44558e-09
1.20757e-08
1.50863e-09
1.05302e-08
1.54545e-09
8.96969e-09
1.56054e-09
7.41166e-09
1.55803e-09
5.87007e-09
1.54159e-09
4.35568e-09
1.51439e-09
2.87664e-09
1.47903e-09
1.43884e-09
1.43781e-09
4.65051e-11
1.39233e-09
-1.29684e-09
1.34335e-09
-2.58824e-09
1.2914e-09
-3.82526e-09
1.23702e-09
-5.00581e-09
1.18056e-09
-6.12805e-09
1.12224e-09
-7.19031e-09
1.06226e-09
-8.19114e-09
1.00083e-09
-9.12934e-09
9.38203e-10
-1.0004e-08
8.74704e-10
-1.08148e-08
8.1071e-10
-1.15614e-08
7.46652e-10
-1.22444e-08
6.82997e-10
-1.28646e-08
6.20227e-10
-1.34235e-08
5.58818e-10
-1.39227e-08
4.99222e-10
-1.43645e-08
4.41855e-10
-1.47516e-08
3.87076e-10
-1.50868e-08
3.35188e-10
-1.53732e-08
2.86429e-10
-1.56142e-08
2.40971e-10
-1.58131e-08
1.98921e-10
-1.59734e-08
1.60327e-10
-1.60986e-08
1.25179e-10
-1.6192e-08
9.34187e-11
-1.6257e-08
6.49442e-11
-1.62966e-08
3.96134e-11
-1.63138e-08
1.72303e-11
-1.63123e-08
-1.54225e-12
-1.62931e-08
-1.92124e-11
-1.62596e-08
-3.35182e-11
-1.62139e-08
-4.56455e-11
-1.61581e-08
-5.57919e-11
-1.6094e-08
-6.41327e-11
-1.60231e-08
-7.0842e-11
-1.5947e-08
-7.60976e-11
-1.5867e-08
-8.00719e-11
-1.5784e-08
-8.29307e-11
-1.56992e-08
-8.48264e-11
-1.56133e-08
-8.59002e-11
-1.5527e-08
-8.62803e-11
-1.5441e-08
-8.60812e-11
-1.53555e-08
-8.54059e-11
-1.52712e-08
-8.43451e-11
-1.51882e-08
-8.29803e-11
-1.51068e-08
-8.13834e-11
-1.50272e-08
-7.96184e-11
-1.49495e-08
-7.77414e-11
-1.48737e-08
-7.58008e-11
-1.47998e-08
-7.38375e-11
-1.4728e-08
-7.18854e-11
-1.4658e-08
-6.99729e-11
-1.45899e-08
-6.81224e-11
-1.45235e-08
-6.63505e-11
-1.44588e-08
-6.46704e-11
-1.43957e-08
-6.30908e-11
-1.43341e-08
-6.16176e-11
-1.42739e-08
-6.02527e-11
-1.42149e-08
-5.8996e-11
-1.4157e-08
-5.78446e-11
-1.41002e-08
-5.67939e-11
-1.40444e-08
-5.58358e-11
-1.39894e-08
-5.49605e-11
-1.39353e-08
-5.41532e-11
-1.38819e-08
-5.33935e-11
-1.38293e-08
-5.26477e-11
-1.37774e-08
-5.18535e-11
-1.37265e-08
-5.08876e-11
-1.3677e-08
-4.94941e-11
-1.36299e-08
-4.71637e-11
-1.35869e-08
-4.29952e-11
-1.35512e-08
-3.56953e-11
-1.35271e-08
-2.41092e-11
-1.35182e-08
-8.84996e-12
-1.35227e-08
4.5457e-12
-1.35205e-08
-2.24177e-12
-1.34594e-08
-6.11446e-11
-1.32493e-08
-2.10026e-10
-1.2689e-08
-5.6038e-10
-1.60109e-09
-1.10879e-08
4.56226e-10
-5.1439e-10
1.73228e-09
-1.6619e-09
3.72682e-09
-2.75948e-09
6.29568e-09
-3.66491e-09
9.25486e-09
-4.2977e-09
1.24005e-08
-4.62067e-09
1.55271e-08
-4.62947e-09
1.84429e-08
-4.34601e-09
2.09825e-08
-3.81234e-09
2.30147e-08
-3.08399e-09
2.4447e-08
-2.22314e-09
2.52261e-08
-1.29194e-09
2.53338e-08
-3.46335e-10
2.4781e-08
5.69391e-10
2.35954e-08
1.42626e-09
2.18137e-08
2.21299e-09
1.94685e-08
2.93572e-09
1.65785e-08
3.61621e-09
1.31405e-08
4.2881e-09
9.12595e-09
4.99144e-09
4.47978e-09
5.76714e-09
-8.75908e-10
6.65129e-09
-7.03576e-09
7.67088e-09
-1.4103e-08
8.84131e-09
-2.21807e-08
1.01655e-08
-3.13635e-08
1.16351e-08
-4.17301e-08
1.32323e-08
-5.33378e-08
1.49308e-08
-6.62161e-08
1.66969e-08
-8.03622e-08
1.84905e-08
-9.5736e-08
2.0265e-08
-1.12257e-07
2.19691e-08
-1.29803e-07
2.35474e-08
-1.48209e-07
2.49435e-08
-1.67273e-07
2.61018e-08
-1.86756e-07
2.69714e-08
-2.06393e-07
2.75079e-08
-2.25904e-07
2.76766e-08
-2.44995e-07
2.7454e-08
-2.63378e-07
2.68287e-08
-2.80774e-07
2.58016e-08
-2.96924e-07
2.43858e-08
-3.11593e-07
2.26047e-08
-3.24582e-07
2.04912e-08
-3.35722e-07
1.80852e-08
-3.44885e-07
1.54322e-08
-3.51976e-07
1.25806e-08
-3.56937e-07
9.5804e-09
-3.59745e-07
6.48147e-09
-3.60406e-07
3.33133e-09
-3.58956e-07
1.78837e-10
-3.5546e-07
-2.93002e-09
-3.50012e-07
-5.94559e-09
-3.42733e-07
-8.83507e-09
-3.33737e-07
-1.15687e-08
-3.23156e-07
-1.41222e-08
-3.11132e-07
-1.64751e-08
-2.97809e-07
-1.86108e-08
-2.83339e-07
-2.05155e-08
-2.67876e-07
-2.21788e-08
-2.51577e-07
-2.35927e-08
-2.34599e-07
-2.47519e-08
-2.17101e-07
-2.56531e-08
-1.99241e-07
-2.62952e-08
-1.81177e-07
-2.66791e-08
-1.63064e-07
-2.6808e-08
-1.45052e-07
-2.6687e-08
-1.27291e-07
-2.63237e-08
-1.09922e-07
-2.57279e-08
-9.30821e-08
-2.49123e-08
-7.68983e-08
-2.3892e-08
-6.14889e-08
-2.26848e-08
-4.69609e-08
-2.13111e-08
-3.34084e-08
-1.9794e-08
-2.09115e-08
-1.81582e-08
-9.53493e-09
-1.64305e-08
6.72801e-10
-1.46392e-08
9.67955e-09
-1.28135e-08
1.74729e-08
-1.09804e-08
2.40576e-08
-9.16783e-09
2.94543e-08
-7.40163e-09
3.37005e-08
-5.70679e-09
3.68483e-08
-4.10454e-09
3.89626e-08
-2.61259e-09
4.01191e-08
-1.24491e-09
4.04012e-08
-1.1592e-11
3.98997e-08
1.08159e-09
3.8707e-08
2.0326e-09
3.69172e-08
2.84285e-09
3.46225e-08
3.5169e-09
3.1912e-08
4.0622e-09
2.88691e-08
4.4885e-09
2.55705e-08
4.80715e-09
2.20855e-08
5.03048e-09
1.8475e-08
5.17108e-09
1.47917e-08
5.24128e-09
1.10807e-08
5.25264e-09
7.3795e-09
5.21556e-09
3.71928e-09
5.13926e-09
1.25193e-10
5.03189e-09
-3.38216e-09
4.89969e-09
-6.78556e-09
4.74675e-09
-1.00709e-08
4.57672e-09
-1.32264e-08
4.39253e-09
-1.62423e-08
4.1965e-09
-1.91107e-08
3.99057e-09
-2.18248e-08
3.77644e-09
-2.43798e-08
3.55577e-09
-2.67718e-08
3.33021e-09
-2.89986e-08
3.10148e-09
-3.10592e-08
2.87135e-09
-3.29542e-08
2.64163e-09
-3.46853e-08
2.41414e-09
-3.62558e-08
2.19066e-09
-3.76698e-08
1.97284e-09
-3.89328e-08
1.76222e-09
-4.00511e-08
1.56015e-09
-4.10318e-08
1.36778e-09
-4.18826e-08
1.18601e-09
-4.26118e-08
1.01556e-09
-4.32277e-08
8.56893e-10
-4.3739e-08
7.10272e-10
-4.41545e-08
5.75767e-10
-4.44826e-08
4.53268e-10
-4.47317e-08
3.42519e-10
-4.49099e-08
2.43135e-10
-4.50249e-08
1.5463e-10
-4.50841e-08
7.64652e-11
-4.50939e-08
8.20677e-12
-4.50616e-08
-5.14688e-11
-4.49925e-08
-1.02573e-10
-4.48922e-08
-1.45969e-10
-4.47656e-08
-1.82411e-10
-4.46172e-08
-2.12557e-10
-4.4451e-08
-2.37045e-10
-4.42706e-08
-2.56489e-10
-4.40792e-08
-2.7148e-10
-4.38795e-08
-2.82571e-10
-4.36741e-08
-2.9028e-10
-4.34649e-08
-2.95085e-10
-4.32537e-08
-2.97426e-10
-4.30421e-08
-2.97696e-10
-4.28313e-08
-2.96256e-10
-4.26222e-08
-2.93425e-10
-4.24157e-08
-2.89489e-10
-4.22124e-08
-2.84701e-10
-4.20127e-08
-2.79285e-10
-4.1817e-08
-2.73434e-10
-4.16255e-08
-2.67318e-10
-4.14383e-08
-2.61078e-10
-4.12553e-08
-2.54835e-10
-4.10766e-08
-2.48688e-10
-4.0902e-08
-2.42717e-10
-4.07314e-08
-2.36986e-10
-4.05645e-08
-2.31542e-10
-4.04012e-08
-2.26421e-10
-4.02411e-08
-2.21647e-10
-4.00842e-08
-2.17235e-10
-3.993e-08
-2.13191e-10
-3.97783e-08
-2.09514e-10
-3.96289e-08
-2.06196e-10
-3.94815e-08
-2.03224e-10
-3.93359e-08
-2.00577e-10
-3.91918e-08
-1.98224e-10
-3.90491e-08
-1.96115e-10
-3.89076e-08
-1.94165e-10
-3.87672e-08
-1.92198e-10
-3.86283e-08
-1.89852e-10
-3.84914e-08
-1.86365e-10
-3.83583e-08
-1.80238e-10
-3.82324e-08
-1.68898e-10
-3.81192e-08
-1.489e-10
-3.80254e-08
-1.17955e-10
-3.79535e-08
-8.07532e-11
-3.78886e-08
-6.02742e-11
-3.77772e-08
-1.1372e-10
-3.74969e-08
-3.41446e-10
-3.68236e-08
-8.83257e-10
-3.54262e-08
-1.9578e-09
-4.14857e-09
-3.28787e-08
7.09647e-10
-1.22404e-09
2.5643e-09
-3.51656e-09
5.31084e-09
-5.50601e-09
8.69182e-09
-7.04589e-09
1.244e-08
-8.04586e-09
1.62867e-08
-8.46742e-09
1.99746e-08
-8.31731e-09
2.32694e-08
-7.64082e-09
2.59704e-08
-6.51334e-09
2.79166e-08
-5.03026e-09
2.89898e-08
-3.29628e-09
2.91125e-08
-1.41467e-09
2.82436e-08
5.22608e-10
2.63682e-08
2.44476e-09
2.34886e-08
4.30592e-09
1.96107e-08
6.0908e-09
1.47332e-08
7.81324e-09
8.83668e-09
9.51277e-09
1.87589e-09
1.12489e-08
-6.22115e-09
1.30885e-08
-1.55509e-08
1.50969e-08
-2.62263e-08
1.73267e-08
-3.83658e-08
1.98104e-08
-5.20801e-08
2.25556e-08
-6.74596e-08
2.5545e-08
-8.45621e-08
2.87375e-08
-1.03402e-07
3.20719e-08
-1.2394e-07
3.54695e-08
-1.46082e-07
3.88382e-08
-1.69667e-07
4.20754e-08
-1.94474e-07
4.50726e-08
-2.20225e-07
4.77204e-08
-2.46592e-07
4.99138e-08
-2.73207e-07
5.15584e-08
-2.9968e-07
5.25751e-08
-3.25614e-07
5.2905e-08
-3.50617e-07
5.25113e-08
-3.74322e-07
5.13811e-08
-3.96392e-07
4.95243e-08
-4.16535e-07
4.6972e-08
-4.34507e-07
4.37736e-08
-4.50115e-07
3.99931e-08
-4.63216e-07
3.57057e-08
-4.73718e-07
3.09935e-08
-4.81575e-07
2.59424e-08
-4.86782e-07
2.0639e-08
-4.89369e-07
1.5168e-08
-4.89399e-07
9.61037e-09
-4.86959e-07
4.04153e-09
-4.82152e-07
-1.4759e-09
-4.75134e-07
-6.83954e-09
-4.66048e-07
-1.2016e-08
-4.55037e-07
-1.69564e-08
-4.42248e-07
-2.16245e-08
-4.27829e-07
-2.59871e-08
-4.11934e-07
-3.00172e-08
-3.94717e-07
-3.36924e-08
-3.76333e-07
-3.6995e-08
-3.56937e-07
-3.99111e-08
-3.36686e-07
-4.24302e-08
-3.15733e-07
-4.45448e-08
-2.94235e-07
-4.625e-08
-2.72345e-07
-4.75434e-08
-2.50215e-07
-4.84249e-08
-2.27997e-07
-4.88969e-08
-2.05841e-07
-4.89643e-08
-1.83894e-07
-4.86345e-08
-1.62299e-07
-4.79183e-08
-1.41198e-07
-4.68295e-08
-1.20724e-07
-4.53858e-08
-1.01007e-07
-4.36087e-08
-8.21686e-08
-4.15235e-08
-6.43201e-08
-3.91596e-08
-4.75637e-08
-3.65504e-08
-3.19894e-08
-3.37325e-08
-1.76742e-08
-3.07456e-08
-4.68118e-09
-2.76322e-08
6.94126e-09
-2.44359e-08
1.71617e-08
-2.12009e-08
2.59673e-08
-1.79734e-08
3.3363e-08
-1.47973e-08
3.93694e-08
-1.17132e-08
4.40235e-08
-8.75859e-09
4.73774e-08
-5.96648e-09
4.94976e-08
-3.36515e-09
5.04633e-08
-9.77283e-10
5.03644e-08
1.18055e-09
4.92993e-08
3.09768e-09
4.73721e-08
4.77005e-09
4.46904e-08
6.19852e-09
4.13628e-08
7.38981e-09
3.74958e-08
8.35552e-09
3.31918e-08
9.11119e-09
2.85471e-08
9.6752e-09
2.36504e-08
1.00677e-08
1.85821e-08
1.03096e-08
1.34135e-08
1.04212e-08
8.20699e-09
1.04221e-08
3.01636e-09
1.03299e-08
-2.1123e-09
1.01605e-08
-7.1406e-09
9.92799e-09
-1.20365e-08
9.64266e-09
-1.67731e-08
9.31329e-09
-2.13279e-08
8.94735e-09
-2.56826e-08
8.55121e-09
-2.98225e-08
8.13042e-09
-3.3736e-08
7.68997e-09
-3.74147e-08
7.2345e-09
-4.0853e-08
6.76847e-09
-4.40477e-08
6.29622e-09
-4.69984e-08
5.82199e-09
-4.97066e-08
5.34989e-09
-5.21763e-08
4.88384e-09
-5.44132e-08
4.42753e-09
-5.64246e-08
3.98431e-09
-5.82196e-08
3.55716e-09
-5.98081e-08
3.14862e-09
-6.12011e-08
2.76078e-09
-6.24103e-08
2.39528e-09
-6.3448e-08
2.05329e-09
-6.43267e-08
1.73553e-09
-6.50588e-08
1.44234e-09
-6.56567e-08
1.17369e-09
-6.61326e-08
9.29214e-10
-6.64984e-08
7.08287e-10
-6.67653e-08
5.10054e-10
-6.69442e-08
3.33484e-10
-6.70451e-08
1.77433e-10
-6.70776e-08
4.0639e-11
-6.70506e-08
-7.83909e-11
-6.69724e-08
-1.80797e-10
-6.68503e-08
-2.68067e-10
-6.66912e-08
-3.41546e-10
-6.65012e-08
-4.02545e-10
-6.62859e-08
-4.5233e-10
-6.60503e-08
-4.9212e-10
-6.57987e-08
-5.23067e-10
-6.5535e-08
-5.4626e-10
-6.52626e-08
-5.62712e-10
-6.49843e-08
-5.73364e-10
-6.47027e-08
-5.79075e-10
-6.44197e-08
-5.80631e-10
-6.41372e-08
-5.78738e-10
-6.38566e-08
-5.74034e-10
-6.3579e-08
-5.67086e-10
-6.33053e-08
-5.58396e-10
-6.30362e-08
-5.48408e-10
-6.27721e-08
-5.37511e-10
-6.25134e-08
-5.26036e-10
-6.22602e-08
-5.1427e-10
-6.20126e-08
-5.02452e-10
-6.17705e-08
-4.90783e-10
-6.15338e-08
-4.79425e-10
-6.13023e-08
-4.68509e-10
-6.10757e-08
-4.58136e-10
-6.08537e-08
-4.48383e-10
-6.06361e-08
-4.39305e-10
-6.04224e-08
-4.30939e-10
-6.02122e-08
-4.2331e-10
-6.00053e-08
-4.1643e-10
-5.98012e-08
-4.10299e-10
-5.95995e-08
-4.04912e-10
-5.93999e-08
-4.00255e-10
-5.92018e-08
-3.96298e-10
-5.90049e-08
-3.92987e-10
-5.88089e-08
-3.90207e-10
-5.86134e-08
-3.87699e-10
-5.84183e-08
-3.84878e-10
-5.82242e-08
-3.8049e-10
-5.80324e-08
-3.7208e-10
-5.78457e-08
-3.55568e-10
-5.76686e-08
-3.25975e-10
-5.75049e-08
-2.81662e-10
-5.73501e-08
-2.3556e-10
-5.71754e-08
-2.34984e-10
-5.69038e-08
-3.85351e-10
-5.63783e-08
-8.66934e-10
-5.53439e-08
-1.91767e-09
-5.35556e-08
-3.74606e-09
-6.75948e-09
-5.09447e-08
8.17217e-10
-2.04125e-09
2.90904e-09
-5.60838e-09
5.92628e-09
-8.52325e-09
9.52233e-09
-1.06419e-08
1.33592e-08
-1.18827e-08
1.71166e-08
-1.22249e-08
2.05021e-08
-1.17028e-08
2.32598e-08
-1.03985e-08
2.51764e-08
-8.42988e-09
2.60831e-08
-5.93701e-09
2.58546e-08
-3.06779e-09
2.44037e-08
3.62365e-11
2.16713e-08
3.25499e-09
1.76185e-08
6.4976e-09
1.22131e-08
9.71135e-09
5.4185e-09
1.28853e-08
-2.81596e-09
1.60477e-08
-1.25621e-08
1.92589e-08
-2.39122e-08
2.25991e-08
-3.69762e-08
2.61525e-08
-5.18695e-08
2.99902e-08
-6.86987e-08
3.41559e-08
-8.75445e-08
3.86561e-08
-1.08445e-07
4.34561e-08
-1.31381e-07
4.84812e-08
-1.56265e-07
5.36218e-08
-1.82934e-07
5.87405e-08
-2.11145e-07
6.36807e-08
-2.40582e-07
6.82751e-08
-2.70862e-07
7.23555e-08
-3.01552e-07
7.5762e-08
-3.32184e-07
7.83526e-08
-3.62281e-07
8.00112e-08
-3.91376e-07
8.0653e-08
-4.19029e-07
8.02288e-08
-4.4485e-07
7.87252e-08
-4.68501e-07
7.6163e-08
-4.89714e-07
7.25938e-08
-5.08284e-07
6.80944e-08
-5.24073e-07
6.27613e-08
-5.37004e-07
5.67045e-08
-5.47053e-07
5.0042e-08
-5.54242e-07
4.28944e-08
-5.5863e-07
3.53815e-08
-5.60306e-07
2.76186e-08
-5.59382e-07
1.97148e-08
-5.55985e-07
1.17708e-08
-5.50253e-07
3.87866e-09
-5.42338e-07
-3.8734e-09
-5.32414e-07
-1.14e-08
-5.20612e-07
-1.86414e-08
-5.07072e-07
-2.5556e-08
-4.9193e-07
-3.2098e-08
-4.75327e-07
-3.82276e-08
-4.57402e-07
-4.39118e-08
-4.38296e-07
-4.91235e-08
-4.18148e-07
-5.38409e-08
-3.97096e-07
-5.80466e-08
-3.7528e-07
-6.17275e-08
-3.52836e-07
-6.48738e-08
-3.29902e-07
-6.74787e-08
-3.06614e-07
-6.95378e-08
-2.83108e-07
-7.10494e-08
-2.59519e-07
-7.20141e-08
-2.35981e-07
-7.2435e-08
-2.12627e-07
-7.23181e-08
-1.89589e-07
-7.16726e-08
-1.66996e-07
-7.05115e-08
-1.44974e-07
-6.88518e-08
-1.23644e-07
-6.67154e-08
-1.03124e-07
-6.41289e-08
-8.35229e-08
-6.11244e-08
-6.49436e-08
-5.77389e-08
-4.74792e-08
-5.40147e-08
-3.1213e-08
-4.99986e-08
-1.62172e-08
-4.57415e-08
-2.5522e-09
-4.12972e-08
9.73308e-09
-3.67212e-08
2.0607e-08
-3.20749e-08
3.00527e-08
-2.74191e-08
3.8066e-08
-2.28106e-08
4.46568e-08
-1.8304e-08
4.98485e-08
-1.39504e-08
5.36787e-08
-9.7967e-09
5.61983e-08
-5.88472e-09
5.74711e-08
-2.25005e-09
5.75711e-08
1.08053e-09
5.65867e-08
4.08206e-09
5.46117e-08
6.74506e-09
5.17485e-08
9.06167e-09
4.81046e-08
1.10337e-08
4.37897e-08
1.26704e-08
3.89136e-08
1.39873e-08
3.35837e-08
1.50051e-08
2.79027e-08
1.57487e-08
2.19672e-08
1.62451e-08
1.58659e-08
1.65226e-08
9.67904e-09
1.66089e-08
3.47825e-09
1.65307e-08
-2.67329e-09
1.63121e-08
-8.72164e-09
1.59763e-08
-1.46217e-08
1.55427e-08