/*--------------------------------*- C++ -*----------------------------------*\
  =========                 |
  \\      /  F ield         | OpenFOAM: The Open Source CFD Toolbox
   \\    /   O peration     | Website:  https://openfoam.org
    \\  /    A nd           | Version:  8
     \\/     M anipulation  |
\*---------------------------------------------------------------------------*/
FoamFile
{
    version     2.0;
    format      ascii;
    class       volVectorField;
    location    "0.34";
    object      U;
}
// * * * * * * * * * * * * * * * * * * * * * * * * * * * * * * * * * * * * * //

dimensions      [0 1 -1 0 0 0 0];

internalField   nonuniform List<vector> 
12225
(
(4.45414e-05 -6.409e-06 0)
(8.82959e-05 -1.43293e-06 0)
(4.22657e-05 7.98064e-07 0)
(-4.78686e-05 1.74229e-06 0)
(-0.000137717 1.08928e-06 0)
(-0.000187631 -1.09602e-06 0)
(-0.00015947 -5.25884e-06 0)
(-7.46567e-06 -1.2153e-05 0)
(0.000321868 -2.23405e-05 0)
(0.000879653 -3.57894e-05 0)
(0.00169563 -5.1181e-05 0)
(0.00275689 -6.59131e-05 0)
(0.00399553 -7.68843e-05 0)
(0.00529481 -8.21384e-05 0)
(0.00651934 -8.20083e-05 0)
(0.00755108 -6.80853e-05 0)
(0.00832794 -0.000119427 0)
(0.00485777 0.00223587 0)
(0.000103492 -2.9282e-05 0)
(0.000182889 1.9307e-06 0)
(1.19784e-05 3.29212e-05 0)
(-0.000283705 4.4757e-05 0)
(-0.000577 3.58665e-05 0)
(-0.000752827 5.89502e-06 0)
(-0.000700309 -4.96532e-05 0)
(-0.000291388 -0.000138174 0)
(0.000617275 -0.000264887 0)
(0.00215578 -0.000426701 0)
(0.00439024 -0.000606379 0)
(0.00726792 -0.000771965 0)
(0.0105853 -0.000883519 0)
(0.0139972 -0.000905724 0)
(0.0170678 -0.000812313 0)
(0.0192528 -0.000521997 0)
(0.0198685 0.000389091 0)
(0.0124585 0.00614212 0)
(0.000138857 -6.52717e-05 0)
(0.000206018 2.16973e-05 0)
(-0.0001195 0.000111312 0)
(-0.000644724 0.000145905 0)
(-0.00116587 0.000120038 0)
(-0.00149569 3.17269e-05 0)
(-0.00145398 -0.000131021 0)
(-0.000839257 -0.000386866 0)
(0.000565489 -0.000747508 0)
(0.00294785 -0.0012005 0)
(0.00638967 -0.00169486 0)
(0.0107869 -0.00213947 0)
(0.0158022 -0.00241938 0)
(0.0208703 -0.00242208 0)
(0.0252438 -0.00203484 0)
(0.0279083 -0.000992978 0)
(0.0275548 0.00179708 0)
(0.0181936 0.0115178 0)
(0.000154391 -0.000107668 0)
(0.00016766 6.76406e-05 0)
(-0.000332084 0.000248546 0)
(-0.00109997 0.000319602 0)
(-0.0018653 0.000267602 0)
(-0.00237471 8.72282e-05 0)
(-0.002385 -0.000244071 0)
(-0.00163308 -0.000759742 0)
(0.000153229 -0.00147793 0)
(0.00319701 -0.00236842 0)
(0.00757751 -0.00332667 0)
(0.0131335 -0.00417087 0)
(0.0194053 -0.00467003 0)
(0.0256336 -0.00458515 0)
(0.0307971 -0.00365396 0)
(0.0335213 -0.0013538 0)
(0.0321851 0.00401045 0)
(0.0222885 0.0176911 0)
(0.000154934 -0.00014553 0)
(8.6021e-05 0.000151425 0)
(-0.00059149 0.000456059 0)
(-0.00159879 0.000578771 0)
(-0.00261135 0.000493225 0)
(-0.00331878 0.000188726 0)
(-0.00342424 -0.000369853 0)
(-0.00261755 -0.00123205 0)
(-0.000591141 -0.00241996 0)
(0.00289255 -0.00387569 0)
(0.0078962 -0.00542188 0)
(0.0142031 -0.00675725 0)
(0.0212544 -0.00749769 0)
(0.0281436 -0.00723296 0)
(0.0336553 -0.00550523 0)
(0.03623 -0.00153081 0)
(0.034241 0.00671436 0)
(0.0247579 0.0239351 0)
(0.000145817 -0.000171488 0)
(-1.30201e-05 0.000279655 0)
(-0.000849619 0.000739269 0)
(-0.00207098 0.000930709 0)
(-0.00331489 0.000807579 0)
(-0.00422612 0.000351332 0)
(-0.0044665 -0.000486553 0)
(-0.00369529 -0.00177065 0)
(-0.00158966 -0.00352227 0)
(0.00208381 -0.00564551 0)
(0.00736303 -0.00787306 0)
(0.0139859 -0.00976066 0)
(0.0213291 -0.0107418 0)
(0.0284026 -0.0102027 0)
(0.0339012 -0.00747166 0)
(0.0362518 -0.00155904 0)
(0.0340211 0.00959678 0)
(0.0255601 0.02984 0)
(0.000132457 -0.000182327 0)
(-9.90158e-05 0.000453022 0)
(-0.00104914 0.00109701 0)
(-0.00243234 0.00137678 0)
(-0.00386773 0.00121746 0)
(-0.00497053 0.00058981 0)
(-0.00537623 -0.000567584 0)
(-0.00473147 -0.002331 0)
(-0.00271753 -0.00471465 0)
(0.000879554 -0.00757507 0)
(0.00607069 -0.0105419 0)
(0.0125664 -0.0130124 0)
(0.0197226 -0.0142194 0)
(0.02654 -0.0133305 0)
(0.0317311 -0.00946825 0)
(0.0338463 -0.00151924 0)
(0.0317378 0.0123948 0)
(0.0246629 0.0351627 0)
(0.000120063 -0.000180365 0)
(-0.000140497 0.000662334 0)
(-0.00112997 0.00151682 0)
(-0.00259337 0.00190733 0)
(-0.00415282 0.00172099 0)
(-0.00541224 0.000914645 0)
(-0.005998 -0.000584199 0)
(-0.0055626 -0.00285815 0)
(-0.00380927 -0.00590712 0)
(-0.000554715 -0.00953277 0)
(0.0041878 -0.0132552 0)
(0.0101259 -0.0163077 0)
(0.0166434 -0.0177189 0)
(0.0228065 -0.0164406 0)
(0.0274432 -0.0114178 0)
(0.0293196 -0.00149562 0)
(0.0275889 0.0148878 0)
(0.0220809 0.0397001 0)
(0.000113025 -0.000174439 0)
(-0.000110207 0.000885966 0)
(-0.00103901 0.00197174 0)
(-0.00247292 0.00249818 0)
(-0.00406093 0.00230398 0)
(-0.00541634 0.0013286 0)
(-0.00617551 -0.000508599 0)
(-0.00601481 -0.00328953 0)
(-0.0046749 -0.00699282 0)
(-0.00201012 -0.0113614 0)
(0.00194848 -0.0158081 0)
(0.00693358 -0.0194093 0)
(0.0124049 -0.0210013 0)
(0.0175623 -0.0193402 0)
(0.021427 -0.0132317 0)
(0.0230323 -0.00154619 0)
(0.0218068 0.0169074 0)
(0.0179003 0.0432825 0)
(0.000114216 -0.000180171 0)
(8.77663e-06 0.00108922 0)
(-0.000742255 0.00241888 0)
(-0.00201592 0.00310821 0)
(-0.00351281 0.00293687 0)
(-0.00487817 0.00182323 0)
(-0.0057786 -0.000317839 0)
(-0.00593108 -0.00355977 0)
(-0.00512607 -0.00785388 0)
(-0.0032589 -0.0128856 0)
(-0.000368756 -0.017972 0)
(0.00332684 -0.0220538 0)
(0.00740743 -0.0238029 0)
(0.0112608 -0.021813 0)
(0.0141551 -0.0147923 0)
(0.0154111 -0.00167826 0)
(0.0146934 0.018356 0)
(0.0123031 0.0457924 0)
(0.000124456 -0.000219603 0)
(0.000217203 0.0012248 0)
(-0.00023724 0.00279865 0)
(-0.00121224 0.00367703 0)
(-0.00248394 0.00357048 0)
(-0.00375264 0.00237252 0)
(-0.00473547 -2.61479e-06 0)
(-0.00520498 -0.00361244 0)
(-0.00500995 -0.00837681 0)
(-0.00408722 -0.0139306 0)
(-0.00247388 -0.0195165 0)
(-0.000318106 -0.0239747 0)
(0.00211059 -0.0258558 0)
(0.00442613 -0.0236355 0)
(0.00617201 -0.0159622 0)
(0.00695552 -0.00185639 0)
(0.00664053 0.0191942 0)
(0.00557867 0.0471565 0)
(0.000140323 -0.000309006 0)
(0.000471775 0.00123823 0)
(0.000380559 0.00302103 0)
(-0.000205039 0.00409212 0)
(-0.0011492 0.00409139 0)
(-0.00222258 0.00288639 0)
(-0.00320593 0.000393901 0)
(-0.00393461 -0.00342395 0)
(-0.00431564 -0.0084578 0)
(-0.00432225 -0.0143081 0)
(-0.00398265 -0.0201767 0)
(-0.00336978 -0.0248531 0)
(-0.00260056 -0.026825 0)
(-0.00183887 -0.0245056 0)
(-0.00127712 -0.0165195 0)
(-0.00105916 -0.00196082 0)
(-0.00117416 0.0194622 0)
(-0.00125895 0.0473914 0)
(0.000159013 -0.000458578 0)
(0.000750871 0.00112234 0)
(0.00106795 0.00308547 0)
(0.000941118 0.00435661 0)
(0.000408285 0.00450214 0)
(-0.000384976 0.00336197 0)
(-0.0012946 0.000857205 0)
(-0.00222421 -0.00302782 0)
(-0.00313885 -0.00815603 0)
(-0.00404611 -0.0141066 0)
(-0.00496323 -0.0200684 0)
(-0.00588868 -0.0248223 0)
(-0.00679086 -0.0268433 0)
(-0.0076176 -0.0245275 0)
(-0.0083072 -0.0164988 0)
(-0.00877091 -0.00190832 0)
(-0.0088616 0.0193828 0)
(-0.00822784 0.0467979 0)
(0.000179411 -0.000717337 0)
(0.00105606 0.000790079 0)
(0.00184821 0.00290542 0)
(0.00228849 0.00440461 0)
(0.00229868 0.00476982 0)
(0.00191762 0.0038088 0)
(0.00119364 0.0014488 0)
(0.000140638 -0.00229932 0)
(-0.00127036 -0.00727285 0)
(-0.00308222 -0.0130468 0)
(-0.00530068 -0.0188331 0)
(-0.00785 -0.0234594 0)
(-0.0105506 -0.0254535 0)
(-0.0131321 -0.0232533 0)
(-0.0152736 -0.015514 0)
(-0.0166503 -0.00142949 0)
(-0.0169657 0.0190635 0)
(-0.015884 0.0452712 0)
(0.000192619 -0.00112293 0)
(0.00130973 0.000136308 0)
(0.00256215 0.00232498 0)
(0.00360639 0.00405314 0)
(0.00424595 0.00471617 0)
(0.00439873 0.00408918 0)
(0.00400276 0.00210666 0)
(0.00297917 -0.00119459 0)
(0.00123409 -0.00563564 0)
(-0.00130843 -0.0108128 0)
(-0.00464864 -0.0160102 0)
(-0.00865422 -0.0201779 0)
(-0.0130278 -0.0219861 0)
(-0.0173193 -0.0200005 0)
(-0.0209848 -0.0129575 0)
(-0.0234851 -7.8547e-05 0)
(-0.0243584 0.0187183 0)
(-0.0232647 0.0427659 0)
(0.000183608 -0.00168146 0)
(0.00139195 -0.00090038 0)
(0.00295039 0.00121333 0)
(0.00449038 0.00311277 0)
(0.0057246 0.00412175 0)
(0.00645897 0.0039914 0)
(0.00652516 0.0026643 0)
(0.00575798 0.000195979 0)
(0.00400106 -0.00323466 0)
(0.00114888 -0.00727197 0)
(-0.00280332 -0.0113334 0)
(-0.00770761 -0.0145689 0)
(-0.0132149 -0.0158939 0)
(-0.018785 -0.0141093 0)
(-0.023744 -0.00811047 0)
(-0.0274018 0.00284797 0)
(-0.0291472 0.0189424 0)
(-0.0285865 0.0396944 0)
(0.00013764 -0.00232383 0)
(0.00119651 -0.00224465 0)
(0.00276504 -0.000422206 0)
(0.00451767 0.00150043 0)
(0.0061364 0.00281522 0)
(0.00735792 0.00327254 0)
(0.00794096 0.00282593 0)
(0.00766388 0.00154046 0)
(0.00633899 -0.000423517 0)
(0.00383374 -0.00278929 0)
(0.000113245 -0.00514266 0)
(-0.00469759 -0.00689179 0)
(-0.0102891 -0.0072787 0)
(-0.016161 -0.00544254 0)
(-0.0216546 -0.000543118 0)
(-0.0260446 0.00806863 0)
(-0.0286771 0.0206738 0)
(-0.0290698 0.0370837 0)
(5.51861e-05 -0.00288214 0)
(0.000745557 -0.00361876 0)
(0.00201745 -0.00233006 0)
(0.00363562 -0.000629115 0)
(0.00531763 0.000819809 0)
(0.00679807 0.00178933 0)
(0.00782226 0.0022482 0)
(0.00816676 0.00226184 0)
(0.00764867 0.0019595 0)
(0.00614112 0.00152861 0)
(0.00359995 0.0012261 0)
(8.61691e-05 0.00138475 0)
(-0.00420279 0.00241437 0)
(-0.00891215 0.00479778 0)
(-0.0135552 0.00902827 0)
(-0.0175592 0.0155408 0)
(-0.0203523 0.0246159 0)
(-0.0214562 0.0362925 0)
(-3.72626e-05 -0.0031697 0)
(0.000270491 -0.00468268 0)
(0.00115774 -0.00412822 0)
(0.00248232 -0.00292621 0)
(0.00401589 -0.00163276 0)
(0.00553017 -0.00042941 0)
(0.00682783 0.000662951 0)
(0.00774157 0.00169309 0)
(0.00814209 0.00274843 0)
(0.00794518 0.00394283 0)
(0.00711855 0.00541138 0)
(0.00568949 0.00730571 0)
(0.00375548 0.00979513 0)
(0.00149376 0.0130597 0)
(-0.000838546 0.0172826 0)
(-0.00292028 0.0226309 0)
(-0.00439946 0.0292322 0)
(-0.00495527 0.0371454 0)
(-6.75343e-05 -0.00323572 0)
(9.20603e-05 -0.0053616 0)
(0.000767825 -0.00550148 0)
(0.00184405 -0.00483902 0)
(0.00314476 -0.00384453 0)
(0.00450494 -0.00268055 0)
(0.00579326 -0.0013884 0)
(0.00691404 4.61817e-05 0)
(0.00780679 0.00166825 0)
(0.00844316 0.00354121 0)
(0.00882568 0.00573839 0)
(0.00898734 0.00833566 0)
(0.00899175 0.0114055 0)
(0.00893363 0.0150113 0)
(0.00893807 0.0192019 0)
(0.00915576 0.0240075 0)
(0.00974963 0.0294363 0)
(0.0108713 0.0354754 0)
(-9.34558e-05 -0.00321524 0)
(-0.000118313 -0.00573248 0)
(0.000229672 -0.0063292 0)
(0.000881115 -0.00602766 0)
(0.00172957 -0.00525255 0)
(0.00267865 -0.00417991 0)
(0.00366168 -0.00288069 0)
(0.00463946 -0.00137197 0)
(0.00559607 0.000360136 0)
(0.00653485 0.00234795 0)
(0.00747649 0.00463098 0)
(0.0084569 0.00724945 0)
(0.00952549 0.0102376 0)
(0.0107435 0.0136187 0)
(0.0121816 0.0174022 0)
(0.013917 0.0215808 0)
(0.0160248 0.0261313 0)
(0.0185752 0.0310186 0)
(-0.00014324 -0.00305118 0)
(-0.000556111 -0.0057067 0)
(-0.000818237 -0.00654714 0)
(-0.000899335 -0.00646603 0)
(-0.000804386 -0.005862 0)
(-0.00055268 -0.00492504 0)
(-0.000151396 -0.0037454 0)
(0.000402357 -0.00235807 0)
(0.00111991 -0.000765583 0)
(0.0020183 0.00104748 0)
(0.00312112 0.0031048 0)
(0.00445848 0.0054292 0)
(0.00606471 0.0080376 0)
(0.00797715 0.0109371 0)
(0.0102341 0.0141227 0)
(0.0128725 0.0175767 0)
(0.0159224 0.0212695 0)
(0.0194151 0.0251645 0)
(-0.000208151 -0.00268503 0)
(-0.0011482 -0.00518492 0)
(-0.00218305 -0.00607162 0)
(-0.00314513 -0.00610122 0)
(-0.00393049 -0.00563994 0)
(-0.00449143 -0.00487681 0)
(-0.0047931 -0.00390493 0)
(-0.00480874 -0.00276259 0)
(-0.00451657 -0.00145649 0)
(-0.00389535 2.28206e-05 0)
(-0.00292441 0.0016924 0)
(-0.0015828 0.00356756 0)
(0.000151543 0.00565853 0)
(0.00229939 0.00796704 0)
(0.00487841 0.0104852 0)
(0.00790193 0.0131948 0)
(0.0113746 0.016069 0)
(0.0153061 0.0190754 0)
(-0.000260094 -0.00215066 0)
(-0.00167855 -0.00426335 0)
(-0.00340365 -0.00505952 0)
(-0.0051333 -0.00513234 0)
(-0.00667626 -0.00479842 0)
(-0.00794147 -0.00422708 0)
(-0.00887302 -0.00350009 0)
(-0.00943636 -0.00264977 0)
(-0.00960825 -0.00168115 0)
(-0.00936992 -0.000585359 0)
(-0.00870416 0.000650817 0)
(-0.00759517 0.00203988 0)
(-0.0060285 0.00358932 0)
(-0.00399228 0.00530004 0)
(-0.00147937 0.00716521 0)
(0.00151258 0.00917051 0)
(0.00497585 0.0112948 0)
(0.00890765 0.0135127 0)
(-0.00027681 -0.00155037 0)
(-0.00196735 -0.00316172 0)
(-0.00411209 -0.00379655 0)
(-0.00631011 -0.00387536 0)
(-0.00832013 -0.00365192 0)
(-0.0100327 -0.00326238 0)
(-0.0113877 -0.0027695 0)
(-0.0123529 -0.00219614 0)
(-0.0129083 -0.0015442 0)
(-0.0130384 -0.000805621 0)
(-0.0127289 3.0592e-05 0)
(-0.0119654 0.000974768 0)
(-0.0107356 0.00203327 0)
(-0.00902994 0.00320738 0)
(-0.00684392 0.0044925 0)
(-0.00417911 0.00587868 0)
(-0.00104674 0.00735113 0)
(0.00254555 0.00889196 0)
(-0.000253124 -0.000991651 0)
(-0.00195498 -0.00209756 0)
(-0.00418696 -0.00255008 0)
(-0.00649908 -0.0026154 0)
(-0.00863847 -0.00247991 0)
(-0.0104973 -0.00224107 0)
(-0.0120223 -0.00194119 0)
(-0.0131879 -0.00159413 0)
(-0.0139789 -0.00119955 0)
(-0.0143827 -0.000750703 0)
(-0.0143861 -0.000239137 0)
(-0.0139753 0.000342947 0)
(-0.013137 0.00100084 0)
(-0.0118607 0.00173614 0)
(-0.0101404 0.00254652 0)
(-0.00797621 0.00342593 0)
(-0.00537659 0.00436495 0)
(-0.00235153 0.00535232 0)
(-0.000198037 -0.000545917 0)
(-0.00168424 -0.00121504 0)
(-0.00370683 -0.00149695 0)
(-0.00581788 -0.0015407 0)
(-0.0077856 -0.00146838 0)
(-0.00951809 -0.00134038 0)
(-0.0109744 -0.00118117 0)
(-0.012137 -0.000997835 0)
(-0.0129954 -0.00078912 0)
(-0.0135395 -0.000550217 0)
(-0.013757 -0.000275453 0)
(-0.0136344 4.0333e-05 0)
(-0.0131578 0.000400912 0)
(-0.0123151 0.000807828 0)
(-0.011098 0.00126028 0)
(-0.0095032 0.00175514 0)
(-0.00753468 0.00228717 0)
(-0.00520047 0.0028503 0)
(-0.000127421 -0.000240922 0)
(-0.0012463 -0.000578209 0)
(-0.00283993 -0.000722088 0)
(-0.00451282 -0.000744628 0)
(-0.00607978 -0.000712696 0)
(-0.00747361 -0.000656576 0)
(-0.00866748 -0.000587663 0)
(-0.00965136 -0.000508754 0)
(-0.0104188 -0.000418725 0)
(-0.010962 -0.000314833 0)
(-0.0112709 -0.000193983 0)
(-0.0113332 -5.33664e-05 0)
(-0.011136 0.000109054 0)
(-0.0106674 0.000294485 0)
(-0.00991778 0.000502806 0)
(-0.00888148 0.000732731 0)
(-0.00755833 0.000981771 0)
(-0.00595318 0.00124703 0)
(-5.87772e-05 -7.06699e-05 0)
(-0.000737437 -0.000193074 0)
(-0.00176011 -0.000244403 0)
(-0.00283743 -0.000252014 0)
(-0.00384952 -0.000242219 0)
(-0.00475749 -0.000225418 0)
(-0.00554765 -0.000205201 0)
(-0.00621573 -0.000182233 0)
(-0.00675854 -0.000155925 0)
(-0.00717119 -0.000125186 0)
(-0.00744658 -8.88338e-05 0)
(-0.00757592 -4.57837e-05 0)
(-0.00754957 4.63616e-06 0)
(-0.00735809 6.31688e-05 0)
(-0.00699349 0.000129794 0)
(-0.00644994 0.000204156 0)
(-0.00572518 0.000285306 0)
(-0.00482143 0.000371888 0)
(-9.52564e-06 -3.7349e-06 0)
(-0.000236959 -1.69945e-05 0)
(-0.000606795 -2.11125e-05 0)
(-0.000996692 -2.16624e-05 0)
(-0.00136358 -2.11757e-05 0)
(-0.00169558 -2.03383e-05 0)
(-0.0019892 -1.94051e-05 0)
(-0.00224372 -1.83646e-05 0)
(-0.00245831 -1.71288e-05 0)
(-0.00263123 -1.55709e-05 0)
(-0.00275966 -1.35586e-05 0)
(-0.00284006 -1.09763e-05 0)
(-0.00286835 -7.77889e-06 0)
(-0.00284041 -3.78303e-06 0)
(-0.00275261 9.87206e-07 0)
(-0.00260195 6.53337e-06 0)
(-0.00238674 1.28035e-05 0)
(-0.00210776 1.9424e-05 0)
(-2.40837e-05 6.98611e-05 -7.64381e-22)
(0.000159655 -1.6052e-05 9.72794e-22)
(0.000667907 -0.000173222 0)
(0.00150476 -0.000321705 0)
(0.00260484 -0.000432156 0)
(0.00387657 -0.00049542 -9.66405e-22)
(0.00522179 -0.000511649 0)
(0.00654586 -0.000486671 0)
(0.00776524 -0.000429886 0)
(0.00881319 -0.000352521 0)
(0.00964315 -0.000266127 9.76635e-22)
(0.0102297 -0.000181328 0)
(0.0105674 -0.000106865 0)
(0.0106669 -4.88491e-05 0)
(0.0105514 -1.02944e-05 0)
(0.0102507 8.30066e-06 1.00549e-21)
(0.00979462 9.10153e-06 0)
(0.00920844 -3.64638e-06 0)
(0.00850828 -2.4368e-05 0)
(0.00769819 -4.69531e-05 0)
(0.00676889 -6.5469e-05 0)
(0.00569825 -7.48262e-05 0)
(0.00445354 -7.1227e-05 0)
(0.00299413 -5.21336e-05 1.08348e-21)
(0.00127489 -1.6156e-05 -1.09933e-21)
(-0.000750767 3.71967e-05 1.11526e-21)
(-0.00312859 0.000107988 1.12912e-21)
(-0.00590112 0.000196244 0)
(-0.00910623 0.000302074 0)
(-0.0127758 0.000425519 -1.16971e-21)
(-0.016934 0.000566353 -1.18379e-21)
(-0.021596 0.000723906 0)
(-0.0267659 0.000896884 0)
(-0.0324354 0.00108322 -1.22306e-21)
(-0.0385818 0.00127993 0)
(-0.0451674 0.0014831 0)
(-0.0521387 0.00168777 1.24802e-21)
(-0.0594268 0.00188805 0)
(-0.0669482 0.00207724 1.24935e-21)
(-0.0746064 0.00224806 2.48748e-21)
(-0.0822944 0.00239306 0)
(-0.0898974 0.00250503 0)
(-0.0972962 0.00257756 0)
(-0.104371 0.00260546 0)
(-0.111004 0.0025852 0)
(-0.117083 0.00251517 2.19247e-21)
(-0.122508 0.00239584 2.10183e-21)
(-0.127187 0.0022298 1.99963e-21)
(-0.131044 0.00202152 0)
(-0.134017 0.00177661 -1.76309e-21)
(-0.13606 0.00150021 0)
(-0.137147 0.00119673 1.48993e-21)
(-0.137262 0.000875225 1.3421e-21)
(-0.136408 0.000547701 0)
(-0.134604 0.000218605 0)
(-0.131889 -0.000103721 0)
(-0.128312 -0.000411911 7.11664e-22)
(-0.123932 -0.000700089 0)
(-0.118816 -0.000963621 0)
(-0.113039 -0.00119884 0)
(-0.106683 -0.00140299 0)
(-0.0998336 -0.00157418 0)
(-0.0925798 -0.00171126 0)
(-0.0850127 -0.00181383 0)
(-0.0772246 -0.0018821 0)
(-0.0693074 -0.00191687 4.45382e-22)
(-0.0613521 -0.00191951 0)
(-0.0534471 -0.00189186 0)
(-0.0456775 -0.00183623 -6.14282e-22)
(-0.0381237 -0.00175538 -6.4012e-22)
(-0.0308606 -0.00165242 0)
(-0.0239561 -0.00153076 6.47347e-22)
(-0.0174701 -0.00139409 -6.30135e-22)
(-0.011454 -0.00124621 0)
(-0.00594948 -0.00109094 5.59455e-22)
(-0.000988066 -0.00093205 0)
(0.00340987 -0.000773405 0)
(0.00723415 -0.000618766 -3.80262e-22)
(0.0104847 -0.000469853 0)
(0.0131713 -0.000330133 2.34956e-22)
(0.0153112 -0.000202499 0)
(0.0169307 -8.862e-05 -8.85429e-23)
(0.0180636 1.05095e-05 -1.75153e-23)
(0.0187488 9.46516e-05 5.10099e-23)
(0.0190295 0.00016413 2.32885e-22)
(0.0189515 0.0002196 -3.56627e-22)
(0.0185607 0.000261823 0)
(0.0179032 0.000292352 0)
(0.0170236 0.000312602 0)
(0.015964 0.000323996 -7.71426e-22)
(0.014763 0.00032804 -8.54884e-22)
(0.0134559 0.000326217 9.30678e-22)
(0.0120736 0.00031991 0)
(0.0106426 0.000310363 -1.06093e-21)
(0.00918549 0.000298655 -1.11632e-21)
(0.00772052 0.000285678 -1.16586e-21)
(0.00626246 0.000272137 0)
(0.00482289 0.000258549 0)
(0.00341067 0.000245266 0)
(0.00203239 0.000232526 -1.3144e-21)
(0.000692829 0.000220376 0)
(-0.00060438 0.000208733 0)
(-0.00185614 0.000197605 1.37685e-21)
(-0.00305977 0.000186974 0)
(-0.00421304 0.000176738 0)
(-0.00531396 0.000166782 1.4061e-21)
(-0.00636074 0.000157001 0)
(-0.00735174 0.000147316 0)
(-0.00828555 0.000137672 -1.4118e-21)
(-0.00916102 0.000128048 -1.40909e-21)
(-0.00997733 0.000118449 0)
(-0.010734 0.000108902 1.39753e-21)
(-0.0114312 9.94547e-05 0)
(-0.0120691 9.01667e-05 -1.37871e-21)
(-0.0126488 8.11035e-05 0)
(-0.0131716 7.23324e-05 -1.35378e-21)
(-0.0136392 6.39174e-05 -1.33941e-21)
(-0.014054 5.59159e-05 0)
(-0.0144182 4.83763e-05 0)
(-0.0147348 4.13364e-05 0)
(-0.0150066 3.48229e-05 0)
(-0.0152368 2.88513e-05 0)
(-0.0154286 2.34259e-05 0)
(-0.0155851 1.85409e-05 0)
(-0.0157097 1.41803e-05 -1.19731e-21)
(-0.0158055 1.03184e-05 1.178e-21)
(-0.0158754 6.91118e-06 0)
(-0.0159224 3.85687e-06 0)
(-0.0159496 1.13677e-06 0)
(-0.0159593 -4.95787e-07 0)
(-0.0159536 -2.00972e-06 2.16463e-21)
(-0.015935 -3.38507e-06 0)
(-0.0159056 -4.53759e-06 -2.0907e-21)
(-0.0158673 -5.442e-06 2.05454e-21)
(-0.0158217 -6.11923e-06 0)
(-0.0157703 -6.59958e-06 0)
(-0.0157144 -6.91183e-06 0)
(-0.0156551 -7.08193e-06 -1.91583e-21)
(-0.0155935 -7.13334e-06 -1.88266e-21)
(-0.0155305 -7.08695e-06 0)
(-0.0154667 -6.96114e-06 -1.81807e-21)
(-0.0154029 -6.77188e-06 -1.78662e-21)
(-0.0153396 -6.53293e-06 1.75572e-21)
(-0.0152771 -6.25617e-06 0)
(-0.0152158 -5.95185e-06 0)
(-0.0151561 -5.62891e-06 1.66605e-21)
(-0.015098 -5.29507e-06 0)
(-0.0150417 -4.95697e-06 0)
(-0.0149874 -4.62014e-06 0)
(-0.0149351 -4.28916e-06 0)
(-0.0148848 -3.96764e-06 -1.52536e-21)
(-0.0148364 -3.65831e-06 -1.49831e-21)
(-0.01479 -3.36319e-06 0)
(-0.0147455 -3.08367e-06 -1.44514e-21)
(-0.0147027 -2.82051e-06 0)
(-0.0146617 -2.57404e-06 0)
(-0.0146223 -2.34411e-06 -1.36736e-21)
(-0.0145843 -2.13025e-06 0)
(-0.0145478 -1.9316e-06 -1.31663e-21)
(-0.0145126 -1.74699e-06 0)
(-0.0144786 -1.5749e-06 0)
(-0.0144456 -1.41347e-06 -1.24189e-21)
(-0.0144137 -1.26043e-06 0)
(-0.0143828 -1.11295e-06 -1.19282e-21)
(-0.0143527 -9.67312e-07 0)
(-0.0143235 -8.18208e-07 0)
(-0.0142952 -6.57034e-07 0)
(-0.0142678 -4.6777e-07 1.09599e-21)
(-0.0142418 -2.18425e-07 0)
(-0.0142176 1.5516e-07 -1.04791e-21)
(-0.0141968 7.71408e-07 0)
(-0.0141818 1.80901e-06 0)
(-0.0141769 3.44913e-06 0)
(-0.0141871 5.67076e-06 0)
(-0.0142153 8.04353e-06 0)
(-0.0142512 9.58741e-06 0)
(-0.0142584 5.92564e-06 0)
(-0.0141935 -4.56702e-06 1.6713e-21)
(-0.0139092 -1.70941e-05 0)
(-0.0124613 -0.000253361 0)
(6.79869e-05 -0.000413164 2.41196e-21)
(0.000835616 -0.001603 -3.10636e-21)
(0.00228473 -0.00284796 0)
(0.00434378 -0.00391203 2.05591e-21)
(0.00684349 -0.0046705 0)
(0.00960184 -0.00507162 1.01833e-21)
(0.0124345 -0.0051122 -2.03881e-21)
(0.015163 -0.00482397 -2.03784e-21)
(0.0176268 -0.00426317 0)
(0.019692 -0.00350103 -2.04448e-21)
(0.0212582 -0.00261463 -1.02395e-21)
(0.0222603 -0.00167861 0)
(0.0226667 -0.000758103 0)
(0.0224749 9.68958e-05 0)
(0.0217036 0.000855601 0)
(0.0203831 0.00150726 -1.05958e-21)
(0.0185458 0.00206061 0)
(0.0162156 0.002541 2.14832e-21)
(0.0134001 0.00298574 0)
(0.0100848 0.0034381 0)
(0.00623108 0.0039414 -2.22222e-21)
(0.00177753 0.00453373 0)
(-0.00335586 0.00524406 2.27463e-21)
(-0.0092605 0.00609021 -1.15373e-21)
(-0.0160315 0.00707857 1.15535e-21)
(-0.023761 0.00820586 -1.1567e-21)
(-0.0325299 0.0094609 -1.15768e-21)
(-0.0424022 0.0108265 0)
(-0.05342 0.0122803 0)
(-0.0655984 0.0137954 1.15764e-21)
(-0.0789209 0.0153396 -1.11702e-21)
(-0.0933356 0.0168756 0)
(-0.108753 0.0183613 0)
(-0.125046 0.0197508 1.14709e-21)
(-0.14205 0.0209955 0)
(-0.159564 0.0220472 0)
(-0.177363 0.02286 -1.12696e-21)
(-0.195197 0.023393 0)
(-0.212805 0.0236134 1.09871e-21)
(-0.229924 0.0234975 -2.18083e-21)
(-0.246292 0.0230331 0)
(-0.261664 0.022219 0)
(-0.275815 0.0210656 -4.15496e-21)
(-0.288544 0.0195937 -4.05791e-21)
(-0.299682 0.0178332 -3.9449e-21)
(-0.309091 0.0158211 1.93761e-21)
(-0.316668 0.0136 -1.80102e-21)
(-0.32234 0.0112154 -5.22017e-21)
(-0.326068 0.00871259 3.32214e-21)
(-0.327843 0.0061353 1.52328e-21)
(-0.32768 0.00352783 0)
(-0.325613 0.000935978 -1.29762e-21)
(-0.32172 -0.00159039 1.25129e-21)
(-0.316103 -0.00401173 0)
(-0.308858 -0.00629895 0)
(-0.300098 -0.00842646 0)
(-0.289943 -0.0103744 -6.34751e-22)
(-0.278522 -0.0121274 0)
(-0.265968 -0.013674 7.92299e-22)
(-0.252419 -0.0150066 0)
(-0.238014 -0.0161202 2.65857e-22)
(-0.222897 -0.0170132 0)
(-0.207211 -0.017686 2.14095e-22)
(-0.1911 -0.0181415 0)
(-0.174707 -0.0183845 -6.25389e-22)
(-0.158176 -0.0184219 3.70054e-22)
(-0.141647 -0.0182623 0)
(-0.125258 -0.0179165 1.07143e-21)
(-0.109143 -0.0173969 6.11268e-22)
(-0.0934313 -0.0167178 6.44271e-22)
(-0.0782447 -0.0158955 0)
(-0.0636981 -0.0149478 6.14933e-22)
(-0.0498969 -0.0138939 6.5649e-22)
(-0.0369358 -0.0127544 0)
(-0.0248973 -0.0115507 -5.96043e-22)
(-0.0138504 -0.0103046 1.05075e-21)
(-0.00384984 -0.00903834 0)
(0.00506404 -0.00777405 4.20612e-22)
(0.0128681 -0.00652982 0)
(0.0195581 -0.00532542 -7.44915e-22)
(0.0251411 -0.00417844 0)
(0.0296422 -0.00310373 2.65343e-22)
(0.0331002 -0.00211306 1.91881e-23)
(0.0355675 -0.00121497 7.50581e-23)
(0.0371076 -0.00041482 2.86567e-22)
(0.0377932 0.000284902 -4.15616e-22)
(0.037704 0.000884474 0)
(0.036924 0.00138722 0)
(0.0355395 0.00179803 0)
(0.0336365 0.00212344 2.54102e-21)
(0.0312994 0.00237131 9.38965e-22)
(0.028608 0.00255039 -1.02443e-21)
(0.025637 0.00266981 0)
(0.0224545 0.00273868 -1.16382e-21)
(0.019121 0.00276571 1.23905e-21)
(0.0156898 0.00275891 1.29817e-21)
(0.0122064 0.0027254 0)
(0.00870969 0.00267126 0)
(0.00523176 0.00260154 0)
(0.001799 0.00252036 1.48155e-21)
(-0.00156705 0.00243072 0)
(-0.00484865 0.00233461 -3.03714e-21)
(-0.00803084 0.00223364 -4.60876e-21)
(-0.0111012 0.00212905 3.09078e-21)
(-0.0140492 0.00202165 0)
(-0.0168662 0.00191206 1.55319e-21)
(-0.019545 0.00180082 0)
(-0.0220797 0.00168844 3.12765e-21)
(-0.0244657 0.00157549 -1.55662e-21)
(-0.0266997 0.00146259 -1.55307e-21)
(-0.0287799 0.00135042 0)
(-0.0307055 0.0012397 -4.63613e-21)
(-0.0324773 0.00113118 3.0682e-21)
(-0.0340972 0.00102559 1.52598e-21)
(-0.0355683 0.000923618 0)
(-0.0368949 0.000825899 1.49778e-21)
(-0.0380821 0.000732975 4.44054e-21)
(-0.0391362 0.000645292 0)
(-0.0400638 0.000563192 2.88997e-21)
(-0.0408722 0.000486908 2.85311e-21)
(-0.0415692 0.000416568 2.81498e-21)
(-0.0421627 0.000352203 0)
(-0.0426608 0.000293753 0)
(-0.0430715 0.000241081 0)
(-0.0434028 0.000193979 -1.32652e-21)
(-0.0436625 0.000152186 -1.30737e-21)
(-0.0438579 0.000115386 0)
(-0.0439963 8.32001e-05 -2.53148e-21)
(-0.0440841 5.53373e-05 -2.49075e-21)
(-0.044128 3.21237e-05 0)
(-0.0441339 1.23878e-05 -2.41039e-21)
(-0.044107 -4.22742e-06 -4.74081e-21)
(-0.0440523 -1.79427e-05 2.33142e-21)
(-0.0439743 -2.90203e-05 2.29274e-21)
(-0.0438772 -3.77503e-05 0)
(-0.0437647 -4.44197e-05 0)
(-0.0436399 -4.92988e-05 0)
(-0.0435058 -5.26379e-05 2.14474e-21)
(-0.043365 -5.46659e-05 -2.10966e-21)
(-0.0432196 -5.55902e-05 -4.14934e-21)
(-0.0430714 -5.55966e-05 2.04024e-21)
(-0.0429222 -5.48503e-05 -2.007e-21)
(-0.0427733 -5.3497e-05 -1.97347e-21)
(-0.0426257 -5.16647e-05 0)
(-0.0424804 -4.94657e-05 0)
(-0.042338 -4.69976e-05 1.87765e-21)
(-0.0421992 -4.43449e-05 0)
(-0.0420643 -4.158e-05 0)
(-0.0419336 -3.87638e-05 -3.57056e-21)
(-0.0418073 -3.5947e-05 0)
(-0.0416855 -3.31708e-05 -1.72592e-21)
(-0.041568 -3.0468e-05 1.69635e-21)
(-0.041455 -2.7864e-05 0)
(-0.0413462 -2.53775e-05 -1.63898e-21)
(-0.0412415 -2.30216e-05 0)
(-0.0411407 -2.08047e-05 0)
(-0.0410436 -1.87309e-05 1.55417e-21)
(-0.0409499 -1.6801e-05 -3.05299e-21)
(-0.0408594 -1.50127e-05 1.49882e-21)
(-0.0407719 -1.33612e-05 0)
(-0.040687 -1.1839e-05 0)
(-0.0406046 -1.04366e-05 -1.41714e-21)
(-0.0405244 -9.14159e-06 0)
(-0.0404462 -7.93809e-06 -1.36323e-21)
(-0.0403697 -6.80363e-06 0)
(-0.0402948 -5.7031e-06 0)
(-0.0402215 -4.57389e-06 0)
(-0.0401496 -3.29212e-06 -1.2563e-21)
(-0.0400798 -1.60518e-06 0)
(-0.040013 9.81609e-07 1.20302e-21)
(-0.0399519 5.32939e-06 0)
(-0.0399012 1.26389e-05 0)
(-0.0398679 2.38945e-05 -2.24405e-21)
(-0.0398591 3.81153e-05 2.18805e-21)
(-0.0398732 4.89412e-05 0)
(-0.0398765 4.06931e-05 0)
(-0.0397838 -1.55633e-05 0)
(-0.0394681 -0.000164002 -5.79968e-21)
(-0.0385521 -0.000498951 0)
(-0.0359786 -0.00128666 3.54033e-21)
(0.000114907 -0.00157712 1.15111e-24)
(0.00128082 -0.00469425 4.13417e-21)
(0.0033296 -0.00748361 0)
(0.00610231 -0.00968504 -4.08294e-21)
(0.00933132 -0.0111455 0)
(0.0127659 -0.0118038 0)
(0.0161712 -0.0116728 -1.62251e-24)
(0.0193278 -0.0108244 2.01611e-21)
(0.0220408 -0.00937507 2.02151e-21)
(0.0241479 -0.00746889 2.0249e-21)
(0.0255237 -0.00526113 0)
(0.0260809 -0.00290247 0)
(0.0257669 -0.000524993 -2.06456e-21)
(0.0245574 0.0017692 -4.15062e-21)
(0.0224483 0.00391669 4.17471e-21)
(0.0194441 0.00589531 0)
(0.0155482 0.00772303 4.2401e-21)
(0.0107518 0.00945199 -2.15316e-21)
(0.00502554 0.0111596 0)
(-0.00168456 0.012935 4.36765e-21)
(-0.00945653 0.0148661 2.19839e-21)
(-0.0183877 0.0170269 -4.31902e-21)
(-0.0285859 0.0194674 -2.16447e-21)
(-0.0401588 0.0222098 0)
(-0.0532017 0.0252477 4.19709e-21)
(-0.0677861 0.0285485 4.15469e-21)
(-0.083949 0.0320576 0)
(-0.101684 0.0357018 4.07297e-21)
(-0.120936 0.0393922 0)
(-0.141591 0.0430271 4.00234e-21)
(-0.163481 0.0464946 1.99164e-21)
(-0.186382 0.0496765 0)
(-0.210021 0.0524536 0)
(-0.234081 0.0547121 0)
(-0.258221 0.0563501 0)
(-0.282081 0.0572838 0)
(-0.305301 0.0574528 0)
(-0.327536 0.0568226 3.87704e-21)
(-0.348464 0.055386 -5.73416e-21)
(-0.367798 0.0531627 0)
(-0.38529 0.0501963 0)
(-0.400741 0.046551 0)
(-0.413995 0.0423073 -1.65643e-22)
(-0.424944 0.0375573 3.50693e-21)
(-0.433522 0.0324 7.02947e-21)
(-0.439702 0.0269373 -6.84391e-21)
(-0.443493 0.0212698 -3.39847e-21)
(-0.444936 0.0154929 3.10174e-21)
(-0.444094 0.00969616 1.64619e-22)
(-0.441051 0.00396571 2.95927e-21)
(-0.435905 -0.00161468 0)
(-0.428821 -0.00696242 2.55039e-21)
(-0.419913 -0.0120249 1.36344e-22)
(-0.409305 -0.0167638 0)
(-0.397131 -0.0211452 0)
(-0.383525 -0.0251435 -1.58573e-21)
(-0.368626 -0.0287391 0)
(-0.352571 -0.0319188 0)
(-0.3355 -0.0346739 9.15058e-22)
(-0.317554 -0.0370006 1.1421e-21)
(-0.298872 -0.0388985 -2.44811e-22)
(-0.279595 -0.0403707 0)
(-0.259863 -0.0414231 -1.9815e-22)
(-0.239815 -0.0420644 0)
(-0.21959 -0.0423055 -4.44667e-22)
(-0.199325 -0.0421603 -7.45536e-22)
(-0.179158 -0.0416448 1.6486e-21)
(-0.159221 -0.0407779 8.84098e-22)
(-0.139646 -0.0395815 0)
(-0.120561 -0.03808 -2.21915e-21)
(-0.102089 -0.0363013 0)
(-0.0843449 -0.0342759 -3.55429e-21)
(-0.0674395 -0.0320371 -2.30979e-21)
(-0.0514732 -0.0296207 -2.23421e-21)
(-0.036537 -0.0270646 2.1095e-21)
(-0.0227106 -0.0244079 -2.95816e-21)
(-0.0100609 -0.0216909 0)
(0.0013582 -0.018954 0)
(0.0115021 -0.0162354 1.19502e-21)
(0.0203537 -0.0135735 1.36256e-21)
(0.0279041 -0.0110025 0)
(0.0341606 -0.0085538 -1.66416e-22)
(0.039147 -0.00625433 0)
(0.0429017 -0.0041263 -4.45443e-22)
(0.0454775 -0.0021867 5.11629e-23)
(0.0469397 -0.000447125 -4.51863e-23)
(0.0473651 0.00108629 1.08156e-21)
(0.0468395 0.00241289 0)
(0.0454557 0.00353657 -1.50607e-21)
(0.0433113 0.00446537 2.24273e-23)
(0.0405063 0.00521109 0)
(0.0371405 0.00578851 0)
(0.0333109 0.00621444 0)
(0.0291101 0.00650681 2.31007e-21)
(0.0246244 0.00668381 0)
(0.019933 0.00676309 0)
(0.0151065 0.00676116 0)
(0.0102078 0.00669286 0)
(0.00529147 0.0065712 0)
(0.000403979 0.00640736 2.92134e-21)
(-0.00441423 0.00621058 0)
(-0.00913048 0.00598762 3.0041e-21)
(-0.0137166 0.00574394 3.02946e-21)
(-0.0181489 0.00548402 -3.04857e-21)
(-0.0224078 0.00521148 0)
(-0.0264772 0.00492936 -3.06992e-21)
(-0.0303441 0.00464033 0)
(-0.0339988 0.00434684 -3.07129e-21)