/*--------------------------------*- C++ -*----------------------------------*\
  =========                 |
  \\      /  F ield         | OpenFOAM: The Open Source CFD Toolbox
   \\    /   O peration     | Website:  https://openfoam.org
    \\  /    A nd           | Version:  8
     \\/     M anipulation  |
\*---------------------------------------------------------------------------*/
FoamFile
{
    version     2.0;
    format      ascii;
    class       volScalarField;
    location    "0.86";
    object      p;
}
// * * * * * * * * * * * * * * * * * * * * * * * * * * * * * * * * * * * * * //

dimensions      [0 2 -2 0 0 0 0];

internalField   nonuniform List<scalar> 
12225
(
-0.00212511
-0.00209867
-0.0020727
-0.00205278
-0.00204375
-0.00204777
-0.00206672
-0.00210241
-0.00215694
-0.00223304
-0.00233464
-0.00246792
-0.00264317
-0.0028788
-0.00320891
-0.00369752
-0.00452683
-0.00642844
-0.00212488
-0.00210125
-0.00207794
-0.00206041
-0.00205354
-0.00205956
-0.0020804
-0.00211791
-0.00217418
-0.00225192
-0.002355
-0.00248939
-0.00266473
-0.00289752
-0.00321599
-0.00366863
-0.00435049
-0.00562769
-0.00212568
-0.00210461
-0.00208424
-0.00206945
-0.00206507
-0.00207338
-0.00209637
-0.00213586
-0.00219392
-0.00227319
-0.00237733
-0.00251182
-0.00268512
-0.00291067
-0.00320878
-0.00360751
-0.00412091
-0.00491958
-0.00212776
-0.00210838
-0.00209048
-0.00207818
-0.0020761
-0.0020865
-0.00211136
-0.00215248
-0.00221184
-0.00229188
-0.00239588
-0.00252853
-0.00269658
-0.00290964
-0.0031797
-0.00351737
-0.00389884
-0.0043999
-0.002131
-0.00211255
-0.00209665
-0.00208656
-0.00208653
-0.00209878
-0.00212523
-0.00216758
-0.00222768
-0.00230766
-0.00241026
-0.00253912
-0.00269893
-0.00289533
-0.00313289
-0.00341004
-0.00369162
-0.00400339
-0.0021352
-0.00211711
-0.00210277
-0.00209465
-0.00209647
-0.00211035
-0.00213809
-0.00218128
-0.00224154
-0.00232063
-0.00242061
-0.0025439
-0.00269306
-0.00287005
-0.00307368
-0.00329492
-0.00349877
-0.00368664
-0.00214013
-0.00212197
-0.00210879
-0.00210237
-0.00210581
-0.00212105
-0.00214976
-0.00219336
-0.00225318
-0.00233055
-0.00242675
-0.00254294
-0.00267968
-0.00283586
-0.00300638
-0.00317853
-0.00332236
-0.00343073
-0.00214552
-0.00212695
-0.00211456
-0.00210956
-0.00211434
-0.00213067
-0.00216
-0.00220354
-0.00226231
-0.00233714
-0.00242853
-0.00253642
-0.00265964
-0.00279482
-0.00293461
-0.00306553
-0.00316429
-0.00322342
-0.00215099
-0.00213181
-0.00211988
-0.00211603
-0.00212189
-0.00213898
-0.00216855
-0.00221156
-0.00226869
-0.00234024
-0.00242597
-0.00252476
-0.00263406
-0.00274906
-0.00286155
-0.00295907
-0.00302493
-0.00305438
-0.00215609
-0.00213626
-0.00212455
-0.00212159
-0.00212824
-0.00214577
-0.00217519
-0.00221721
-0.00227214
-0.0023398
-0.00241927
-0.00250856
-0.00260419
-0.00270061
-0.00278973
-0.00286107
-0.00290348
-0.00291538
-0.00216035
-0.0021399
-0.00212829
-0.00212599
-0.00213316
-0.00215081
-0.00217971
-0.00222029
-0.00227255
-0.00233585
-0.00240872
-0.00248854
-0.00257125
-0.00265116
-0.00272089
-0.00277219
-0.00279815
-0.00279986
-0.00216298
-0.00214212
-0.00213056
-0.0021287
-0.00213612
-0.00215359
-0.00218167
-0.00222059
-0.00227005
-0.00232909
-0.00239585
-0.00246734
-0.00253928
-0.00260613
-0.00266141
-0.0026987
-0.00271389
-0.00270985
-0.00216385
-0.00214328
-0.00213178
-0.00213026
-0.00213779
-0.00215489
-0.00218192
-0.0022189
-0.00226531
-0.00231992
-0.00238059
-0.00244415
-0.00250635
-0.00256205
-0.00260577
-0.0026327
-0.00264065
-0.00263262
-0.00216216
-0.00214266
-0.00213143
-0.00213024
-0.00213774
-0.00215415
-0.00217967
-0.00221412
-0.00225679
-0.00230625
-0.00236018
-0.00241539
-0.00246784
-0.002513
-0.00254643
-0.00256474
-0.00256705
-0.00255595
-0.00215611
-0.00213864
-0.00212829
-0.00212748
-0.00213477
-0.00215012
-0.00217356
-0.00220481
-0.00224301
-0.00228663
-0.00233334
-0.00238008
-0.00242319
-0.0024588
-0.00248344
-0.00249477
-0.00249249
-0.00247862
-0.00214312
-0.00212906
-0.00212062
-0.00212045
-0.00212736
-0.00214117
-0.00216188
-0.00218914
-0.00222206
-0.00225916
-0.00229824
-0.00233652
-0.0023708
-0.00239785
-0.00241493
-0.00242033
-0.00241376
-0.00239654
-0.00212018
-0.00211134
-0.00210631
-0.00210725
-0.00211361
-0.00212536
-0.0021425
-0.00216477
-0.0021914
-0.00222107
-0.00225185
-0.00228132
-0.00230677
-0.0023255
-0.00233523
-0.0023345
-0.00232273
-0.00230047
-0.00208487
-0.00208322
-0.00208324
-0.00208586
-0.00209144
-0.00210036
-0.00211283
-0.00212873
-0.00214752
-0.00216815
-0.00218905
-0.00220821
-0.00222335
-0.00223219
-0.00223273
-0.00222353
-0.00220365
-0.00217298
-0.00203844
-0.0020453
-0.00205118
-0.00205536
-0.00205928
-0.00206392
-0.00206975
-0.00207693
-0.00208521
-0.00209389
-0.00210184
-0.00210751
-0.00210906
-0.00210458
-0.00209229
-0.00207066
-0.00203832
-0.00199481
-0.00200383
-0.00201743
-0.00202766
-0.0020325
-0.00203414
-0.00203384
-0.00203215
-0.00202931
-0.00202522
-0.0020195
-0.00201138
-0.0019998
-0.00198345
-0.00196095
-0.00193105
-0.00189258
-0.00184431
-0.00178539
-0.00198708
-0.00200405
-0.00201627
-0.00202118
-0.00202122
-0.00201756
-0.00201062
-0.00200058
-0.0019874
-0.00197079
-0.00195022
-0.00192493
-0.00189399
-0.00185645
-0.0018114
-0.0017581
-0.00169563
-0.00162338
-0.00198253
-0.0020007
-0.00201361
-0.00201856
-0.00201778
-0.00201205
-0.00200157
-0.00198635
-0.00196628
-0.00194109
-0.00191035
-0.00187352
-0.00182998
-0.00177909
-0.00172033
-0.00165332
-0.00157758
-0.00149275
-0.00198604
-0.00200399
-0.00201692
-0.00202225
-0.00202154
-0.00201506
-0.00200271
-0.00198433
-0.00195966
-0.00192839
-0.00189011
-0.00184441
-0.00179087
-0.00172913
-0.00165894
-0.00158026
-0.00149304
-0.00139729
-0.00199378
-0.00201079
-0.00202367
-0.0020299
-0.00203011
-0.00202403
-0.00201127
-0.00199145
-0.0019642
-0.00192909
-0.00188572
-0.0018337
-0.00177274
-0.00170264
-0.00162338
-0.00153517
-0.00143832
-0.00133324
-0.00200281
-0.00201878
-0.00203198
-0.00203969
-0.00204153
-0.00203672
-0.00202464
-0.00200473
-0.00197647
-0.00193934
-0.00189288
-0.00183669
-0.00177051
-0.00169427
-0.00160807
-0.00151228
-0.0014075
-0.0012945
-0.00201117
-0.0020265
-0.00204062
-0.00205037
-0.00205434
-0.0020514
-0.00204074
-0.00202167
-0.00199355
-0.00195576
-0.00190773
-0.00184905
-0.00177943
-0.00169883
-0.00160744
-0.00150573
-0.00139445
-0.00127473
-0.00201776
-0.00203317
-0.00204896
-0.00206118
-0.00206762
-0.00206691
-0.00205814
-0.00204053
-0.00201333
-0.00197582
-0.00192735
-0.00186741
-0.00179569
-0.00171212
-0.00161691
-0.00151059
-0.001394
-0.00126848
-0.00202205
-0.00203856
-0.00205678
-0.00207184
-0.00208098
-0.00208273
-0.00207616
-0.00206041
-0.00203468
-0.00199813
-0.00195003
-0.00188977
-0.00181694
-0.00173144
-0.00163346
-0.00152353
-0.00140252
-0.00127189
-0.00202393
-0.0020427
-0.00206403
-0.00208217
-0.00209412
-0.00209846
-0.00209424
-0.00208062
-0.00205672
-0.00202162
-0.00197448
-0.00191457
-0.0018414
-0.00175476
-0.00165481
-0.00154205
-0.00141732
-0.00128214
-0.00202398
-0.00204545
-0.00206963
-0.00209037
-0.00210463
-0.00211108
-0.00210883
-0.00209703
-0.00207477
-0.00204105
-0.00199494
-0.00193561
-0.0018625
-0.0017753
-0.00167412
-0.0015594
-0.001432
-0.00129339
0.000525457
0.000535591
0.000536682
0.000521959
0.000491234
0.000445432
0.000385545
0.000312676
0.000228005
0.00013273
2.78714e-05
-8.56523e-05
-0.000207068
-0.000335742
-0.000471145
-0.000612819
-0.000760327
-0.000913206
-0.00107092
-0.0012328
-0.001398
-0.00156548
-0.00173391
-0.00190169
-0.00206691
-0.00222734
-0.00238039
-0.00252319
-0.00265254
-0.00276495
-0.00285674
-0.00292405
-0.00296293
-0.00296942
-0.00293971
-0.00287017
-0.00275757
-0.00259913
-0.0023927
-0.00213688
-0.00183111
-0.00147577
-0.00107228
-0.000623123
-0.000131828
0.000397174
0.000958071
0.00154441
0.00214889
0.00276352
0.00337986
0.00398919
0.00458271
0.00515171
0.00568783
0.00618314
0.00663035
0.00702289
0.00735502
0.00762189
0.00781957
0.00794505
0.00799621
0.00797192
0.00787189
0.00769663
0.00744761
0.00712718
0.00673857
0.00628594
0.00577441
0.00521009
0.00460014
0.00395274
0.00327706
0.0025832
0.00188202
0.00118495
0.000503655
-0.000150329
-0.000765761
-0.00133257
-0.00184187
-0.0022865
-0.00266137
-0.00296368
-0.00319305
-0.0033515
-0.00344323
-0.00347434
-0.00345239
-0.00338591
-0.00328384
-0.00315514
-0.00300827
-0.00285093
-0.00268987
-0.00253078
-0.00237833
-0.00223618
-0.00210711
-0.00199298
-0.00189482
-0.00181283
-0.00174641
-0.00169425
-0.00165449
-0.00162491
-0.00160308
-0.00158663
-0.00157336
-0.00156137
-0.00154913
-0.00153546
-0.00151958
-0.00150101
-0.00147959
-0.00145537
-0.0014286
-0.0013997
-0.00136917
-0.00133755
-0.00130545
-0.00127343
-0.00124204
-0.00121173
-0.0011829
-0.00115586
-0.00113082
-0.00110792
-0.00108719
-0.00106861
-0.0010521
-0.00103751
-0.00102468
-0.0010134
-0.00100346
-0.000994654
-0.000986763
-0.000979583
-0.000972925
-0.000966612
-0.00096049
-0.000954419
-0.00094828
-0.000941971
-0.000935407
-0.000928519
-0.00092125
-0.000913558
-0.000905412
-0.000896795
-0.000887682
-0.00087807
-0.000867962
-0.000857363
-0.000846281
-0.000834728
-0.000822716
-0.000810261
-0.000797377
-0.000784074
-0.000770361
-0.000756241
-0.00074171
-0.000726753
-0.000711348
-0.000695459
-0.000679039
-0.000662031
-0.000644373
-0.000625989
-0.000606822
-0.000586837
-0.000566008
-0.00054437
-0.000522017
-0.000499331
-0.000478199
-0.000449248
0.000538245
0.00054767
0.000548255
0.00053415
0.000505996
0.000464996
0.000412052
0.000348016
0.000273764
0.000190108
9.78453e-05
-2.36491e-06
-0.000109973
-0.000224522
-0.000345631
-0.000472968
-0.000606213
-0.000745018
-0.000888961
-0.00103751
-0.00118997
-0.00134546
-0.00150285
-0.00166075
-0.00181749
-0.00197106
-0.00211916
-0.00225914
-0.00238803
-0.00250258
-0.00259927
-0.00267436
-0.002724
-0.00274424
-0.0027312
-0.00268117
-0.0025907
-0.00245677
-0.00227692
-0.00204938
-0.00177319
-0.00144832
-0.00107576
-0.000657547
-0.000196744
0.000302399
0.000834763
0.00139405
0.00197316
0.00256431
0.00315922
0.00374925
0.00432565
0.00487976
0.00540315
0.00588786
0.00632652
0.00671248
0.0070399
0.00730384
0.00750026
0.00762605
0.00767902
0.00765785
0.00756214
0.00739252
0.00715051
0.00683852
0.00645981
0.00601862
0.00552013
0.00497056
0.00437715
0.00374818
0.00309289
0.00242143
0.00174462
0.00107382
0.000420506
-0.000203932
-0.000788749
-0.00132441
-0.00180268
-0.00221713
-0.00256345
-0.00283969
-0.00304625
-0.00318586
-0.00326327
-0.00328494
-0.00325855
-0.00319246
-0.00309527
-0.00297534
-0.00284039
-0.00269729
-0.00255194
-0.0024092
-0.00227296
-0.00214626
-0.00203134
-0.00192971
-0.0018422
-0.00176893
-0.00170938
-0.00166246
-0.00162657
-0.0015998
-0.00158004
-0.00156523
-0.00155341
-0.00154287
-0.00153219
-0.00152027
-0.00150633
-0.00148988
-0.00147069
-0.00144876
-0.00142429
-0.0013976
-0.00136915
-0.00133945
-0.00130904
-0.00127847
-0.00124826
-0.00121887
-0.00119071
-0.00116409
-0.00113926
-0.00111636
-0.00109547
-0.00107659
-0.00105966
-0.00104457
-0.00103119
-0.00101932
-0.00100878
-0.000999369
-0.000990891
-0.00098315
-0.000975964
-0.000969162
-0.000962592
-0.000956117
-0.000949617
-0.000942989
-0.000936147
-0.000929018
-0.000921545
-0.000913681
-0.00090539
-0.000896646
-0.000887438
-0.000877753
-0.00086759
-0.00085695
-0.000845839
-0.000834266
-0.000822244
-0.000809784
-0.000796898
-0.000783597
-0.000769887
-0.000755771
-0.000741244
-0.000726295
-0.0007109
-0.000695029
-0.000678639
-0.000661681
-0.000644099
-0.000625839
-0.000606852
-0.000587101
-0.000566592
-0.000545383
-0.000523608
-0.000501699
-0.000481493
-0.000453822
0.000620297
0.000623221
0.000617468
0.000599055
0.000568963
0.000528397
0.000478173
0.000418937
0.000351321
0.000275895
0.000193139
0.000103434
7.06005e-06
-9.5783e-05
-0.000204961
-0.000320379
-0.000441948
-0.000569548
-0.000702993
-0.000841984
-0.000986074
-0.00113462
-0.00128676
-0.00144135
-0.00159694
-0.00175177
-0.00190371
-0.00205028
-0.00218861
-0.00231549
-0.00242738
-0.00252045
-0.00259067
-0.00263384
-0.00264578
-0.00262239
-0.00255981
-0.00245456
-0.00230373
-0.00210508
-0.00185721
-0.00155972
-0.00121324
-0.000819486
-0.000381237
9.73891e-05
0.000611206
0.00115397
0.00171854
0.00229706
0.0028811
0.0034619
0.00403054
0.00457819
0.0050963
0.00557676
0.0060121
0.00639559
0.00672134
0.00698437
0.00718065
0.00730709
0.00736152
0.00734262
0.00725
0.00708425
0.00684699
0.00654062
0.00616845
0.00573473
0.00524471
0.00470467
0.00412196
0.003505
0.00286321
0.0022069
0.00154712
0.000895407
0.000263432
-0.000337335
-0.000896307
-0.00140385
-0.00185217
-0.00223537
-0.00254986
-0.00279453
-0.0029708
-0.00308246
-0.00313528
-0.00313664
-0.00309489
-0.00301883
-0.00291714
-0.00279789
-0.00266828
-0.00253439
-0.00240115
-0.00227244
-0.00215118
-0.00203954
-0.00193905
-0.00185068
-0.00177492
-0.00171173
-0.00166058
-0.00162048
-0.00159006
-0.00156763
-0.00155138
-0.00153948
-0.00153023
-0.00152207
-0.00151374
-0.00150419
-0.00149268
-0.00147871
-0.00146203
-0.0014426
-0.00142054
-0.00139615
-0.00136982
-0.00134202
-0.00131329
-0.00128413
-0.00125507
-0.00122657
-0.00119904
-0.00117282
-0.00114816
-0.00112525
-0.00110418
-0.00108498
-0.00106763
-0.00105204
-0.00103808
-0.00102562
-0.00101446
-0.00100444
-0.000995358
-0.000987039
-0.000979305
-0.000971993
-0.000964954
-0.000958052
-0.000951169
-0.0009442
-0.000937058
-0.000929668
-0.000921969
-0.000913912
-0.000905461
-0.000896585
-0.000887267
-0.000877496
-0.000867264
-0.000856571
-0.000845422
-0.000833823
-0.000821782
-0.000809312
-0.000796421
-0.000783118
-0.000769409
-0.000755297
-0.000740776
-0.000725836
-0.000710458
-0.000694613
-0.000678267
-0.000661376
-0.000643892
-0.000625775
-0.000606986
-0.000587506
-0.000567357
-0.00054662
-0.000525455
-0.000504295
-0.000485158
-0.0004582
0.000771864
0.000761853
0.000743321
0.000715614
0.000679333
0.000635151
0.000583594
0.000525124
0.000460101
0.00038879
0.000311355
0.000227851
0.000138235
4.23759e-05
-5.99247e-05
-0.000168906
-0.000284817
-0.000407875
-0.00053823
-0.000675916
-0.000820804
-0.000972553
-0.00113057
-0.00129393
-0.00146138
-0.00163126
-0.00180148
-0.00196949
-0.00213227
-0.00228635
-0.00242785
-0.00255247
-0.00265566
-0.00273265
-0.0027786
-0.00278878
-0.00275868
-0.00268426
-0.00256203
-0.00238932
-0.0021644
-0.00188661
-0.00155643
-0.00117541
-0.000746544
-0.000274187
0.000236159
0.000777924
0.0013436
0.0019249
0.00251298
0.00309867
0.00367268
0.00422584
0.00474932
0.00523483
0.00567474
0.00606227
0.00639152
0.00665758
0.0068565
0.00698533
0.00704202
0.00702543
0.00693529
0.00677218
0.00653766
0.00623416
0.00586494
0.00543417
0.00494709
0.00440996
0.00383018
0.00321628
0.00257788
0.00192561
0.0012709
0.000625756
2.37653e-06
-0.000587261
-0.00113187
-0.0016214
-0.00204781
-0.00240522
-0.00269026
-0.0029024
-0.00304393
-0.00311983
-0.00313729
-0.00310517
-0.00303327
-0.00293165
-0.00280986
-0.00267647
-0.00253867
-0.00240212
-0.00227099
-0.00214817
-0.0020355
-0.00193411
-0.00184461
-0.00176725
-0.00170199
-0.00164845
-0.00160593
-0.00157337
-0.00154945
-0.0015326
-0.00152113
-0.00151337
-0.00150775
-0.00150285
-0.0014975
-0.00149075
-0.00148188
-0.00147041
-0.00145609
-0.00143887
-0.00141886
-0.00139633
-0.00137166
-0.00134531
-0.0013178
-0.00128965
-0.00126138
-0.00123347
-0.00120633
-0.00118033
-0.00115574
-0.00113276
-0.00111151
-0.00109203
-0.00107432
-0.00105832
-0.00104391
-0.00103096
-0.00101931
-0.0010088
-0.000999232
-0.000990445
-0.000982267
-0.000974538
-0.000967112
-0.000959855
-0.00095265
-0.000945392
-0.000937991
-0.000930374
-0.000922477
-0.000914249
-0.000905652
-0.000896653
-0.000887233
-0.000877377
-0.000867076
-0.000856329
-0.000845137
-0.000833506
-0.000821443
-0.000808956
-0.000796054
-0.000782746
-0.000769035
-0.000754925
-0.00074041
-0.000725483
-0.000710125
-0.000694314
-0.000678017
-0.0006612
-0.000643823
-0.00062585
-0.000607255
-0.000588031
-0.000568209
-0.000547884
-0.00052722
-0.000506621
-0.000488036
-0.000461988
0.000973599
0.000945956
0.000909786
0.00086899
0.000823429
0.000772858
0.000717341
0.00065695
0.000591651
0.000521303
0.00044566
0.000364374
0.000276996
0.000182988
8.17403e-05
-2.73972e-05
-0.000145086
-0.000271953
-0.000408547
-0.000555276
-0.000712355
-0.000879734
-0.00105704
-0.0012435
-0.00143789
-0.00163848
-0.00184297
-0.00204848
-0.00225153
-0.00244807
-0.0026335
-0.00280279
-0.00295053
-0.00307112
-0.00315889
-0.0032083
-0.00321417
-0.00317181
-0.00307728
-0.00292758
-0.00272077
-0.00245613
-0.00213413
-0.00175664
-0.00132712
-0.000850357
-0.000332344
0.000219784
0.000797911
0.00139314
0.00199604
0.00259687
0.00318582
0.00375332
0.00429018
0.00478786
0.00523862
0.00563561
0.00597298
0.00624594
0.00645072
0.00658454
0.00664558
0.00663285
0.00654624
0.00638641
0.00615488
0.00585405
0.00548708
0.00505802
0.00457195
0.00403504
0.00345461
0.00283926
0.00219875
0.00154403
0.000886999
0.000240271
-0.000383197
-0.000970573
-0.00150967
-0.00198946
-0.00240096
-0.00273775
-0.00299618
-0.00317577
-0.00327939
-0.00331302
-0.00328538
-0.0032072
-0.00309036
-0.00294693
-0.00278828
-0.00262431
-0.00246297
-0.00231007
-0.00216934
-0.00204281
-0.00193119
-0.00183437
-0.0017518
-0.00168274
-0.00162634
-0.00158169
-0.00154768
-0.00152305
-0.00150633
-0.00149594
-0.00149021
-0.00148752
-0.00148638
-0.00148546
-0.00148365
-0.00148005
-0.00147401
-0.00146507
-0.00145301
-0.00143777
-0.0014195
-0.00139846
-0.00137504
-0.00134971
-0.00132302
-0.00129549
-0.00126767
-0.00124005
-0.00121307
-0.0011871
-0.00116244
-0.0011393
-0.00111782
-0.00109806
-0.00108002
-0.00106366
-0.00104887
-0.00103552
-0.00102347
-0.00101256
-0.0010026
-0.000993439
-0.000984901
-0.000976832
-0.000969088
-0.000961538
-0.000954063
-0.000946561
-0.00093894
-0.000931127
-0.000923056
-0.000914676
-0.000905945
-0.000896833
-0.000887316
-0.000877378
-0.000867009
-0.000856206
-0.00084497
-0.000833303
-0.000821212
-0.000808704
-0.000795787
-0.000782469
-0.000768754
-0.000754643
-0.000740136
-0.000725223
-0.00070989
-0.000694117
-0.000677878
-0.000661142
-0.000643877
-0.000626052
-0.00060765
-0.000588671
-0.000569152
-0.000549189
-0.000528939
-0.000508762
-0.00049034
-0.000465564
0.00120379
0.00115596
0.00109953
0.00104357
0.000987008
0.000928378
0.000867058
0.000802578
0.000734366
0.000661748
0.000583965
0.000500169
0.000409427
0.000310724
0.000202982
8.50839e-05
-4.40858e-05
-0.00018559
-0.000340378
-0.000509214
-0.000692596
-0.000890671
-0.00110315
-0.0013292
-0.00156742
-0.00181571
-0.00207127
-0.00233056
-0.00258929
-0.00284252
-0.00308467
-0.00330967
-0.00351112
-0.00368243
-0.00381704
-0.00390863
-0.00395135
-0.00394003
-0.00387042
-0.00373931
-0.0035448
-0.00328626
-0.00296447
-0.00258185
-0.00214247
-0.00165167
-0.0011161
-0.000543648
5.68331e-05
0.000675698
0.00130278
0.00192768
0.00253999
0.00312962
0.003687
0.00420333
0.00467069
0.00508222
0.00543217
0.00571591
0.00592989
0.00607163
0.00613957
0.00613297
0.00605185
0.00589698
0.00566989
0.0053729
0.00500902
0.00458211
0.00409698
0.0035596
0.00297716
0.00235817
0.00171251
0.00105139
0.000387169
-0.000266879
-0.000896933
-0.00148912
-0.0020301
-0.00250763
-0.00291135
-0.00323359
-0.00346987
-0.00361925
-0.00368457
-0.00367246
-0.00359292
-0.0034586
-0.00328379
-0.00308325
-0.00287097
-0.00265918
-0.00245752
-0.00227274
-0.00210875
-0.001967
-0.00184717
-0.00174779
-0.00166691
-0.00160249
-0.00155259
-0.00151543
-0.00148929
-0.00147245
-0.00146316
-0.00145969
-0.00146028
-0.00146327
-0.00146718
-0.00147071
-0.0014728
-0.0014726
-0.00146948
-0.00146305
-0.0014531
-0.00143962
-0.00142276
-0.00140284
-0.00138028
-0.00135558
-0.0013293
-0.00130202
-0.0012743
-0.00124667
-0.0012196
-0.00119346
-0.00116858
-0.00114518
-0.0011234
-0.00110333
-0.00108497
-0.00106827
-0.00105314
-0.00103946
-0.00102707
-0.00101583
-0.00100556
-0.000996089
-0.000987259
-0.000978914
-0.000970911
-0.000963118
-0.00095542
-0.000947711
-0.000939903
-0.000931919
-0.000923696
-0.00091518
-0.000906329
-0.000897111
-0.000887502
-0.000877485
-0.000867048
-0.000856189
-0.000844904
-0.000833198
-0.000821075
-0.000808542
-0.000795606
-0.000782275
-0.000768552
-0.000754441
-0.000739939
-0.000725042
-0.000709738
-0.000694009
-0.000677834
-0.000661186
-0.000644039
-0.000626369
-0.000608162
-0.000589422
-0.000570189
-0.000550554
-0.000530663
-0.000510822
-0.000492353
-0.000469102
0.00143798
0.00136916
0.00129174
0.00122009
0.00115197
0.00108449
0.00101615
0.000945779
0.000872114
0.000793824
0.00070953
0.000617806
0.000517163
0.000406058
0.000282903
0.0001461
-5.91825e-06
-0.000174618
-0.000361289
-0.000566947
-0.000792231
-0.00103729
-0.00130169
-0.0015843
-0.00188318
-0.00219558
-0.00251787
-0.00284553
-0.00317321
-0.00349482
-0.00380362
-0.00409243
-0.00435376
-0.00458005
-0.00476392
-0.00489837
-0.00497705
-0.00499444
-0.00494612
-0.0048289
-0.00464095
-0.00438193
-0.00405325
-0.00365794
-0.00320057
-0.00268721
-0.0021253
-0.00152355
-0.000891683
-0.000240197
0.000419916
0.00107747
0.00172137
0.00234094
0.00292615
0.00346785
0.00395797
0.00438961
0.00475712
0.00505606
0.00528319
0.00543634
0.00551429
0.00551663
0.00544358
0.00529603
0.00507551
0.00478424
0.00442505
0.00400154
0.00351823
0.00298076
0.00239611
0.00177266
0.0011203
0.000450438
-0.000224137
-0.000889497
-0.00153094
-0.00213348
-0.00268248
-0.00316431
-0.00356704
-0.00388139
-0.00410143
-0.00422519
-0.00425492
-0.00419727
-0.00406303
-0.00386646
-0.00362425
-0.00335414
-0.0030734
-0.00279743
-0.00253861
-0.00230561
-0.00210332
-0.00193323
-0.00179425
-0.00168362
-0.00159782
-0.00153322
-0.00148646
-0.00145459
-0.00143498
-0.00142521
-0.00142307
-0.0014265
-0.00143356
-0.00144247
-0.00145167
-0.00145987
-0.001466
-0.00146924
-0.001469
-0.00146492
-0.00145684
-0.00144479
-0.00142897
-0.00140976
-0.00138761
-0.00136309
-0.00133682
-0.00130939
-0.00128143
-0.00125349
-0.00122605
-0.00119954
-0.00117427
-0.00115049
-0.00112835
-0.00110793
-0.00108923
-0.00107221
-0.00105678
-0.00104281
-0.00103015
-0.00101864
-0.00100812
-0.000998412
-0.000989354
-0.000980792
-0.000972584
-0.000964598
-0.000956718
-0.00094884
-0.000940875
-0.000932747
-0.000924392
-0.000915755
-0.000906796
-0.000897481
-0.000887786
-0.000877692
-0.000867189
-0.000856271
-0.000844937
-0.000833188
-0.000821029
-0.000808467
-0.000795508
-0.00078216
-0.000768427
-0.000754313
-0.000739818
-0.000724938
-0.000709664
-0.000693983
-0.000677877
-0.000661324
-0.000644301
-0.00062679
-0.000608779
-0.000590275
-0.000571314
-0.00055198
-0.000532403
-0.000512837
-0.000494206
-0.00047261
0.00164979
0.00156085
0.00146335
0.0013767
0.00129735
0.00122084
0.00114464
0.00106671
0.000984991
0.000897396
0.000801842
0.000696255
0.000578548
0.000446624
0.000298385
0.000131772
-5.51758e-05
-0.000264238
-0.000496913
-0.000754295
-0.00103695
-0.00134478
-0.00167693
-0.00203162
-0.00240614
-0.00279676
-0.00319876
-0.00360643
-0.00401319
-0.00441169
-0.00479401
-0.00515184
-0.0054767
-0.00576016
-0.00599414
-0.0061711
-0.00628431
-0.00632804
-0.00629779
-0.00619045
-0.00600438
-0.00573975
-0.00539843
-0.004984
-0.00450169
-0.00395832
-0.0033622
-0.00272293
-0.00205119
-0.00135843
-0.000656577
4.22807e-05
0.000726251
0.00138395
0.00200477
0.00257919
0.00309887
0.00355686
0.00394758
0.00426684
0.00451171
0.00468038
0.00477205
0.00478664
0.00472466
0.00458719
0.00437578
0.0040925
0.00374001
0.00332162
0.00284149
0.00230493
0.00171861
0.00109073
0.000431138
-0.000248597
-0.000935313
-0.00161446
-0.00227047
-0.00288726
-0.00344884
-0.0039401
-0.00434749
-0.00466005
-0.00486998
-0.00497377
-0.00497261
-0.00487255
-0.00468454
-0.0044239
-0.00410931
-0.00376143
-0.00340106
-0.00304742
-0.00271645
-0.00241978
-0.00216425
-0.00195218
-0.00178224
-0.00165061
-0.00155221
-0.00148162
-0.00143377
-0.0014042
-0.00138909
-0.00138506
-0.00138924
-0.00139908
-0.00141233
-0.001427
-0.00144141
-0.00145418
-0.00146424
-0.00147075
-0.00147316
-0.00147113
-0.00146455
-0.00145352
-0.0014383
-0.00141933
-0.00139713
-0.00137234
-0.00134563
-0.00131767
-0.00128911
-0.00126054
-0.00123249
-0.0012054
-0.00117959
-0.00115531
-0.00113273
-0.00111192
-0.00109287
-0.00107555
-0.00105984
-0.00104563
-0.00103275
-0.00102104
-0.00101033
-0.00100044
-0.000991211
-0.000982488
-0.000974125
-0.000965991
-0.000957969
-0.000949957
-0.000941864
-0.000933616
-0.000925147
-0.000916406
-0.000907349
-0.000897945
-0.000888168
-0.000878
-0.000867431
-0.000856453
-0.000845066
-0.000833272
-0.000821074
-0.000808478
-0.000795492
-0.000782123
-0.000768377
-0.000754258
-0.000739768
-0.000724906
-0.000709665
-0.000694035
-0.000678002
-0.000661547
-0.000644654
-0.000627304
-0.000609488
-0.000591214
-0.000572511
-0.000553453
-0.000534152
-0.000514812
-0.000495952
-0.00047604
0.00181268
0.00170588
0.00159056
0.00149054
0.0014009
0.00131552
0.00123075
0.00114362
0.00105117
0.000950479
0.000838722
0.000713146
0.000571055
0.000409806
0.000226825
1.96643e-05
-0.000213931
-0.000475913
-0.000767805
-0.00109057
-0.00144444
-0.00182882
-0.00224212
-0.0026817
-0.0031438
-0.00362352
-0.00411488
-0.00461089
-0.0051037
-0.00558474
-0.00604496
-0.00647502
-0.00686555
-0.00720742
-0.00749193
-0.00771111
-0.00785791
-0.00792645
-0.00791218
-0.00781201
-0.00762457
-0.00735049
-0.00699202
-0.00655324
-0.00604007
-0.00546012
-0.00482258
-0.00413805
-0.00341821
-0.0026756
-0.0019232
-0.00117412
-0.000441193
0.000263341
0.000928205
0.00154334
0.00210009
0.00259138
0.00301168
0.00335701
0.00362478
0.00381362
0.00392314
0.0039537
0.00390616
0.00378178
0.00358219
0.00330936
0.00296576
0.0025544
0.00207907
0.00154472
0.000957668
0.000325903
-0.000340784
-0.00103071
-0.00173035
-0.00242458
-0.00309699
-0.00373041
-0.00430756
-0.00481182
-0.00522803
-0.0055435
-0.00574862
-0.00583798
-0.00581131
-0.00567361
-0.0054354
-0.00511239
-0.0047247
-0.00429543
-0.00384883
-0.00340811
-0.0029934
-0.00262011
-0.00229797
-0.00203105
-0.00181849
-0.00165585
-0.00153664
-0.00145361
-0.00139977
-0.00136888
-0.00135563
-0.00135547
-0.00136463
-0.00137992
-0.00139866
-0.00141855
-0.00143772
-0.00145469
-0.00146829
-0.00147769
-0.00148232
-0.0014819
-0.00147636
-0.00146586
-0.00145073
-0.0014315
-0.00140877
-0.00138325
-0.00135568
-0.0013268
-0.00129731
-0.00126784
-0.00123894
-0.00121107
-0.00118458
-0.00115971
-0.00113663
-0.00111539
-0.00109599
-0.00107837
-0.00106242
-0.00104801
-0.00103495
-0.00102309
-0.00101224
-0.00100223
-0.000992887
-0.00098405
-0.000975576
-0.000967334
-0.000959205
-0.000951087
-0.000942892
-0.000934543
-0.000925977
-0.000917142
-0.000907997
-0.000898508
-0.000888653
-0.000878412
-0.000867775
-0.000856737
-0.000845294
-0.00083345
-0.000821208
-0.000808574
-0.000795557
-0.000782163
-0.0007684
-0.000754274
-0.000739788
-0.000724942
-0.000709734
-0.000694156
-0.000678198
-0.000661845
-0.000645082
-0.000627893
-0.000610271
-0.000592218
-0.000573759
-0.000554951
-0.000535892
-0.000516738
-0.000497618
-0.000479329
0.00190173
0.00178053
0.00165079
0.00153977
0.00144114
0.00134726
0.00125331
0.00115534
0.00104947
0.00093195
0.000799185
0.000647755
0.000474378
0.00027591
4.93764e-05
-0.000207963
-0.000498518
-0.000824243
-0.00118649
-0.00158587
-0.00202205
-0.0024937
-0.0029983
-0.00353213
-0.00409025
-0.0046665
-0.00525362
-0.00584334
-0.0064266
-0.0069937
-0.00753458
-0.008039
-0.00849683
-0.00889826
-0.00923408
-0.00949587
-0.0096763
-0.00976927
-0.0097701
-0.00967572
-0.009485
-0.00919882
-0.00881973
-0.00835235
-0.00780325
-0.00718084
-0.00649526
-0.0057581
-0.0049822
-0.00418123
-0.0033694
-0.00256097
-0.00176988
-0.00100937
-0.000291555
0.000372851
0.000974763
0.00150687
0.00196365
0.00234131
0.00263761
0.00285162
0.00298345
0.00303392
0.00300433
0.00289618
0.00271122
0.00245138
0.00211891
0.00171654
0.00124771
0.000716968
0.000130319
-0.000504491
-0.00117774
-0.00187763
-0.0025903
-0.00330004
-0.00398963
-0.00464086
-0.0052352
-0.00575459
-0.00618228
-0.00650382
-0.00670812
-0.00678766
-0.00674053
-0.00657041
-0.00628692
-0.00590562
-0.00544739
-0.00493721
-0.00440226
-0.00386964
-0.00336385
-0.0029046
-0.00250531
-0.00217263
-0.00190698
-0.00170389
-0.00155579
-0.0014537
-0.00138864
-0.0013524
-0.00133793
-0.00133932
-0.00135168
-0.00137104
-0.00139417
-0.0014184
-0.00144158
-0.00146207
-0.0014786
-0.0014903
-0.00149659
-0.0014972
-0.00149214
-0.00148161
-0.00146604
-0.00144603
-0.00142229
-0.0013956
-0.00136678
-0.00133664
-0.00130592
-0.0012753
-0.00124536
-0.00121657
-0.00118929
-0.00116376
-0.00114013
-0.00111845
-0.0010987
-0.00108081
-0.00106465
-0.00105007
-0.00103688
-0.00102492
-0.00101398
-0.00100389
-0.000994466
-0.000985555
-0.000977006
-0.000968685
-0.000960476
-0.000952275
-0.000943994
-0.000935558
-0.000926905
-0.000917984
-0.000908755
-0.000899184
-0.00088925
-0.000878934
-0.000868228
-0.000857123
-0.000845621
-0.000833721
-0.00082143
-0.000808753
-0.000795699
-0.000782276
-0.000768493
-0.000754356
-0.00073987
-0.00072504
-0.000709864
-0.000694338
-0.000678455
-0.000662203
-0.000645569
-0.000628538
-0.000611102
-0.000593259
-0.000575026
-0.000556445
-0.000537594
-0.000518597
-0.000499208
-0.000482407
0.00189605
0.0017649
0.001625
0.0015058
0.00139979
0.0012979
0.00119425
0.00108394
0.000962191
0.000824447
0.000666401
0.000484003
0.000273439
3.11388e-05
-0.000246177
-0.000561419
-0.000917009
-0.00131474
-0.00175561
-0.00223967
-0.00276589
-0.003332
-0.00393445
-0.00456835
-0.00522755
-0.00590464
-0.00659111
-0.00727754
-0.00795376
-0.00860907
-0.00923247
-0.00981294
-0.0103396
-0.010802
-0.0111905
-0.0114961
-0.0117111
-0.0118291
-0.0118452
-0.0117562
-0.0115612
-0.0112612
-0.0108589
-0.0103596
-0.00977024
-0.00910023
-0.00836058
-0.007564
-0.0067245
-0.00585704
-0.00497712
-0.00410035
-0.00324192
-0.00241622
-0.00163637
-0.000913913
-0.000258494
0.000322239
0.000822689
0.00123921
0.0015699
0.00181429
0.00197302
0.00204746
0.00203936
0.00195057
0.00178302
0.00153863
0.00121946
0.000827994
0.000367326
-0.000158364
-0.000743403
-0.00138026
-0.00205929
-0.00276855
-0.00349384
-0.00421889
-0.00492567
-0.00559498
-0.00620706
-0.0067425
-0.00718304
-0.00751257
-0.00771856
-0.00779167
-0.00772824
-0.00753053
-0.00720704
-0.00677276
-0.00624876
-0.00566123
-0.00503973
-0.00441474
-0.00381496
-0.0032646
-0.00278123
-0.00237479
-0.0020477
-0.00179611
-0.00161184
-0.00148446
-0.001403
-0.00135725
-0.00133827
-0.00133857
-0.00135205
-0.00137379
-0.00139993