/*--------------------------------*- C++ -*----------------------------------*\
  =========                 |
  \\      /  F ield         | OpenFOAM: The Open Source CFD Toolbox
   \\    /   O peration     | Website:  https://openfoam.org
    \\  /    A nd           | Version:  8
     \\/     M anipulation  |
\*---------------------------------------------------------------------------*/
FoamFile
{
    version     2.0;
    format      ascii;
    class       surfaceScalarField;
    location    "0.86";
    object      phi;
}
// * * * * * * * * * * * * * * * * * * * * * * * * * * * * * * * * * * * * * //

dimensions      [0 3 -1 0 0 0 0];

internalField   nonuniform List<scalar> 
24170
(
-2.20301e-12
2.20301e-12
4.0433e-12
-6.24631e-12
1.7767e-11
-1.37237e-11
3.73828e-11
-1.96158e-11
6.16996e-11
-2.43168e-11
8.99641e-11
-2.82644e-11
1.21673e-10
-3.17086e-11
1.56482e-10
-3.48093e-11
1.94173e-10
-3.76908e-11
2.34663e-10
-4.04905e-11
2.78042e-10
-4.3379e-11
3.24589e-10
-4.6547e-11
3.74688e-10
-5.00989e-11
4.28232e-10
-5.35437e-11
4.81277e-10
-5.30452e-11
5.07964e-10
-2.66866e-11
4.1909e-10
8.8874e-11
1.32015e-09
-9.01062e-10
-2.32916e-12
4.53217e-12
1.88909e-11
-2.74664e-11
6.2829e-11
-5.76619e-11
1.2481e-10
-8.15963e-11
2.01347e-10
-1.00855e-10
2.90018e-10
-1.16935e-10
3.891e-10
-1.30791e-10
4.97279e-10
-1.42988e-10
6.13503e-10
-1.53915e-10
7.36921e-10
-1.63908e-10
8.66774e-10
-1.73232e-10
1.00204e-09
-1.81812e-10
1.14025e-09
-1.88308e-10
1.27378e-09
-1.87078e-10
1.37779e-09
-1.57053e-10
1.371e-09
-1.98957e-11
9.57276e-10
5.02597e-10
2.92968e-09
-6.52253e-10
1.528e-12
3.00417e-12
4.20297e-11
-6.79681e-11
1.21195e-10
-1.36827e-10
2.31517e-10
-1.91918e-10
3.67138e-10
-2.36476e-10
5.23721e-10
-2.73517e-10
6.98e-10
-3.0507e-10
8.87265e-10
-3.32254e-10
1.08906e-09
-3.55707e-10
1.30089e-09
-3.75746e-10
1.5198e-09
-3.92141e-10
1.74113e-09
-4.03135e-10
1.95546e-09
-4.02641e-10
2.14077e-09
-3.72387e-10
2.24197e-09
-2.5825e-10
2.11959e-09
1.02479e-10
1.41828e-09
1.20391e-09
4.60047e-09
-2.52506e-10
9.23102e-12
-6.22684e-12
7.41447e-11
-1.32882e-10
1.93987e-10
-2.56669e-10
3.58802e-10
-3.56733e-10
5.6029e-10
-4.37964e-10
7.91974e-10
-5.05202e-10
1.04866e-09
-5.6176e-10
1.32574e-09
-6.09327e-10
1.6186e-09
-6.48566e-10
1.92207e-09
-6.79218e-10
2.22934e-09
-6.99413e-10
2.52965e-09
-7.03447e-10
2.80312e-09
-6.76109e-10
3.00936e-09
-5.78627e-10
3.06359e-09
-3.12482e-10
2.79426e-09
3.71814e-10
1.90015e-09
2.09801e-09
6.23846e-09
2.62162e-10
2.09064e-11
-2.71333e-11
1.15689e-10
-2.27664e-10
2.81919e-10
-4.22899e-10
5.07317e-10
-5.82132e-10
7.81084e-10
-7.11731e-10
1.09437e-09
-8.18486e-10
1.43964e-09
-9.0703e-10
1.80976e-09
-9.79449e-10
2.19716e-09
-1.03597e-09
2.59279e-09
-1.07485e-09
2.98436e-09
-1.09099e-09
3.35291e-09
-1.072e-09
3.66601e-09
-9.89209e-10
3.86513e-09
-7.77742e-10
3.84511e-09
-2.92463e-10
3.43413e-09
7.82789e-10
2.42614e-09
3.106e-09
7.78321e-09
8.81391e-10
3.64131e-11
-6.35464e-11
1.66696e-10
-3.57947e-10
3.85013e-10
-6.41217e-10
6.76704e-10
-8.73823e-10
1.0284e-09
-1.06342e-09
1.42863e-09
-1.21872e-09
1.86709e-09
-1.34549e-09
2.33349e-09
-1.44585e-09
2.81641e-09
-1.51888e-09
3.30176e-09
-1.5602e-09
3.77041e-09
-1.55964e-09
4.19392e-09
-1.49551e-09
4.52727e-09
-1.32255e-09
4.69777e-09
-9.48242e-10
4.59323e-09
-1.87929e-10
4.06645e-09
1.30958e-09
3.01068e-09
4.16177e-09
9.19706e-09
1.59683e-09
5.54401e-11
-1.18986e-10
2.26644e-10
-5.2915e-10
5.02347e-10
-9.1692e-10
8.65232e-10
-1.23671e-09
1.29924e-09
-1.49744e-09
1.79008e-09
-1.70955e-09
2.32423e-09
-1.87964e-09
2.88761e-09
-2.00923e-09
3.46413e-09
-2.0954e-09
4.03376e-09
-2.12982e-09
4.56968e-09
-2.09556e-09
5.03387e-09
-1.9597e-09
5.37072e-09
-1.6594e-09
5.50003e-09
-1.07755e-09
5.31587e-09
-3.7703e-12
4.7105e-09
1.91494e-09
3.66317e-09
5.2091e-09
1.04571e-08
2.40317e-09
7.7439e-11
-1.96425e-10
2.94302e-10
-7.46013e-10
6.31767e-10
-1.25438e-09
1.06938e-09
-1.67432e-09
1.58826e-09
-2.01631e-09
2.17105e-09
-2.29234e-09
2.80065e-09
-2.50924e-09
3.45869e-09
-2.66728e-09
4.12381e-09
-2.76051e-09
4.76947e-09
-2.77548e-09
5.36113e-09
-2.68723e-09
5.85238e-09
-2.45095e-09
6.18077e-09
-1.98779e-09
6.26617e-09
-1.16295e-09
6.0197e-09
2.42702e-10
5.37852e-09
2.55612e-09
4.38758e-09
6.20003e-09
1.15472e-08
3.29748e-09
1.01588e-10
-2.98013e-10
3.67586e-10
-1.01201e-09
7.69597e-10
-1.6564e-09
1.28342e-09
-2.18814e-09
1.88714e-09
-2.62004e-09
2.56022e-09
-2.96542e-09
3.28174e-09
-3.23076e-09
4.02871e-09
-3.41425e-09
4.77422e-09
-3.50601e-09
5.48529e-09
-3.48656e-09
6.1205e-09
-3.32244e-09
6.62742e-09
-2.95787e-09
6.9415e-09
-2.30187e-09
6.98993e-09
-1.21138e-09
6.70763e-09
5.25005e-10
6.0749e-09
3.18884e-09
5.18146e-09
7.09347e-09
1.24535e-08
4.27511e-09
1.26749e-10
-4.24762e-10
4.43422e-10
-1.32868e-09
9.10348e-10
-2.12332e-09
1.49894e-09
-2.77673e-09
2.18412e-09
-3.30523e-09
2.9421e-09
-3.7234e-09
3.74809e-09
-4.03675e-09
4.5745e-09
-4.24066e-09
5.38906e-09
-4.32058e-09
6.15313e-09
-4.25063e-09
6.82007e-09
-3.98938e-09
7.33467e-09
-3.47247e-09
7.63525e-09
-2.60244e-09
7.66194e-09
-1.23807e-09
7.37623e-09
8.10711e-10
6.79518e-09
3.7699e-09
6.03501e-09
7.85364e-09
1.31618e-08
5.32676e-09
1.5159e-10
-5.76352e-10
5.17647e-10
-1.69474e-09
1.04647e-09
-2.65215e-09
1.70452e-09
-3.43478e-09
2.46348e-09
-4.06419e-09
3.29643e-09
-4.55634e-09
4.17497e-09
-4.91529e-09
5.06729e-09
-5.13298e-09
5.93661e-09
-5.1899e-09
6.73998e-09
-5.054e-09
7.42802e-09
-4.67741e-09
7.94629e-09
-3.99075e-09
8.24036e-09
-2.89651e-09
8.26684e-09
-1.26455e-09
8.01308e-09
1.06447e-09
7.52437e-09
4.25861e-09
6.92923e-09
8.44877e-09
1.36556e-08
6.43537e-09
1.46166e-10
-7.22518e-10
4.89295e-10
-2.03787e-09
9.7807e-10
-3.14092e-09
1.57976e-09
-4.03647e-09
2.26794e-09
-4.75238e-09
3.01778e-09
-5.30617e-09
3.80296e-09
-5.70047e-09
4.59408e-09
-5.9241e-09
5.35758e-09
-5.9534e-09
6.05545e-09
-5.75187e-09
6.646e-09
-5.26796e-09
7.08655e-09
-4.4313e-09
7.33918e-09
-3.14914e-09
7.38093e-09
-1.30629e-09
7.2186e-09
1.2268e-09
6.90547e-09
4.57175e-09
6.55158e-09
8.80265e-09
1.38935e-08
6.31368e-09
1.83605e-10
-9.06123e-10
6.09607e-10
-2.46387e-09
1.20775e-09
-3.73907e-09
1.9367e-09
-4.76541e-09
2.76389e-09
-5.57957e-09
3.65901e-09
-6.20129e-09
4.59005e-09
-6.63151e-09
5.52147e-09
-6.85552e-09
6.41345e-09
-6.84538e-09
7.22237e-09
-6.56079e-09
7.9028e-09
-5.9484e-09
8.41195e-09
-4.94045e-09
8.71725e-09
-3.45444e-09
8.8076e-09
-1.39664e-09
8.70717e-09
1.32722e-09
8.48778e-09
4.79113e-09
8.27191e-09
9.01852e-09
1.39498e-08
8.21564e-09
2.22298e-10
-1.12842e-09
7.33726e-10
-2.9753e-09
1.44215e-09
-4.44749e-09
2.29643e-09
-5.61969e-09
3.25783e-09
-6.54098e-09
4.29072e-09
-7.23418e-09
5.35792e-09
-7.69871e-09
6.4187e-09
-7.9163e-09
7.42859e-09
-7.85528e-09
8.34089e-09
-7.47308e-09
9.11016e-09
-6.71767e-09
9.69826e-09
-5.52855e-09
1.00831e-08
-3.83928e-09
1.02696e-08
-1.5831e-09
1.03006e-08
1.2962e-09
1.02638e-08
4.82787e-09
1.02881e-08
8.99431e-09
1.37146e-08
1.05232e-08
2.53494e-10
-1.38191e-09
8.32281e-10
-3.55409e-09
1.62456e-09
-5.23977e-09
2.5701e-09
-6.56523e-09
3.62551e-09
-7.59638e-09
4.75177e-09
-8.36044e-09
5.90902e-09
-8.85596e-09
7.05458e-09
-9.06186e-09
8.14343e-09
-8.94413e-09
9.13088e-09
-8.46053e-09
9.97734e-09
-7.56413e-09
1.06553e-08
-6.20652e-09
1.1158e-08
-4.34199e-09
1.15086e-08
-1.93365e-09
1.17669e-08
1.03792e-09
1.20308e-08
4.56397e-09
1.24277e-08
8.59736e-09
1.30467e-08
1.30957e-08
2.59414e-10
-1.64133e-09
8.47212e-10
-4.14189e-09
1.64356e-09
-6.03612e-09
2.58492e-09
-7.5066e-09
3.62821e-09
-8.63967e-09
4.73625e-09
-9.46848e-09
5.87227e-09
-9.99198e-09
6.99831e-09
-1.01879e-08
8.07634e-09
-1.00222e-08
9.07167e-09
-9.45586e-09
9.95821e-09
-8.45068e-09
1.07253e-08
-6.97356e-09
1.13846e-08
-5.00133e-09
1.19766e-08
-2.52568e-09
1.2573e-08
4.41512e-10
1.32738e-08
3.86321e-09
1.41969e-08
7.67421e-09
1.17813e-08
1.54623e-08
2.09591e-10
-1.85092e-09
6.79323e-10
-4.61162e-09
1.30914e-09
-6.66593e-09
2.04755e-09
-8.245e-09
2.86262e-09
-9.45475e-09
3.72906e-09
-1.03349e-08
4.62354e-09
-1.08865e-08
5.52379e-09
-1.10882e-08
6.40996e-09
-1.09083e-08
7.26789e-09
-1.03138e-08
8.09369e-09
-9.27648e-09
8.89882e-09
-7.77869e-09
9.71464e-09
-5.81715e-09
1.0595e-08
-3.40606e-09
1.16158e-08
-5.79282e-10
1.287e-08
2.60905e-09
1.44583e-08
6.08594e-09
9.76304e-09
1.64766e-08
5.95882e-11
-1.91051e-09
1.8584e-10
-4.73787e-09
3.48977e-10
-6.82907e-09
5.37567e-10
-8.43359e-09
7.49061e-10
-9.66624e-09
9.85305e-10
-1.05712e-08
1.25114e-09
-1.11523e-08
1.55453e-09
-1.13915e-08
1.90773e-09
-1.12615e-08
2.32935e-09
-1.07354e-08
2.84685e-09
-9.79398e-09
3.49883e-09
-8.43067e-09
4.33648e-09
-6.65479e-09
5.42328e-09
-4.49287e-09
6.83249e-09
-1.98849e-09
8.64224e-09
7.99297e-10
1.0929e-08
3.79916e-09
6.93198e-09
1.37601e-08
-2.37293e-10
-1.67322e-09
-7.74706e-10
-4.20046e-09
-1.50378e-09
-6.09999e-09
-2.36097e-09
-7.5764e-09
-3.2981e-09
-8.72911e-09
-4.26948e-09
-9.59978e-09
-5.22679e-09
-1.0195e-08
-6.11706e-09
-1.05013e-08
-6.88193e-09
-1.04967e-08
-7.45771e-09
-1.01596e-08
-7.77583e-09
-9.47586e-09
-7.76389e-09
-8.44261e-09
-7.34734e-09
-7.07135e-09
-6.45193e-09
-5.38827e-09
-5.00715e-09
-3.43327e-09
-2.95029e-09
-1.25757e-09
-2.30221e-10
1.0791e-09
3.5127e-09
3.18906e-09
-3.43153e-10
-1.33006e-09
-1.1208e-09
-3.42281e-09
-2.17973e-09
-5.04106e-09
-3.43607e-09
-6.32007e-09
-4.83088e-09
-7.3343e-09
-6.31137e-09
-8.11928e-09
-7.82337e-09
-8.68299e-09
-9.30857e-09
-9.01607e-09
-1.07042e-08
-9.10105e-09
-1.19439e-08
-8.91988e-09
-1.29601e-08
-8.45974e-09
-1.36855e-08
-7.71715e-09
-1.40567e-08
-6.7002e-09
-1.40158e-08
-5.42911e-09
-1.35137e-08
-3.93537e-09
-1.25116e-08
-2.25967e-09
-1.09833e-08
-4.49215e-10
1.44514e-09
-8.91575e-09
-3.6616e-10
-9.63903e-10
-1.20169e-09
-2.58728e-09
-2.35073e-09
-3.89202e-09
-3.72961e-09
-4.94119e-09
-5.2798e-09
-5.78412e-09
-6.94927e-09
-6.44982e-09
-8.68497e-09
-6.94728e-09
-1.04299e-08
-7.27114e-09
-1.21227e-08
-7.40828e-09
-1.36986e-08
-7.34394e-09
-1.50918e-08
-7.06655e-09
-1.62377e-08
-6.57128e-09
-1.70758e-08
-5.8621e-09
-1.75524e-08
-4.95246e-09
-1.7623e-08
-3.86475e-09
-1.72539e-08
-2.62883e-09
-1.64231e-08
-1.27996e-09
1.4334e-10
-1.51213e-08
-3.25598e-10
-6.38305e-10
-1.08172e-09
-1.83116e-09
-2.13875e-09
-2.83499e-09
-3.42613e-09
-3.65381e-09
-4.89296e-09
-4.31729e-09
-6.49375e-09
-4.84902e-09
-8.1824e-09
-5.25864e-09
-9.90947e-09
-5.54407e-09
-1.16216e-08
-5.69617e-09
-1.32621e-08
-5.70344e-09
-1.47727e-08
-5.55589e-09
-1.6096e-08
-5.248e-09
-1.71776e-08
-4.78054e-09
-1.79687e-08
-4.16128e-09
-1.84286e-08
-3.40485e-09
-1.85258e-08
-2.53166e-09
-1.82392e-08
-1.56654e-09
-5.3751e-10
-1.75584e-08
-2.56105e-10
-3.822e-10
-8.70187e-10
-1.21707e-09
-1.74972e-09
-1.95545e-09
-2.84044e-09
-2.5631e-09
-4.10057e-09
-3.05715e-09
-5.49267e-09
-3.45692e-09
-6.97933e-09
-3.77198e-09
-8.52084e-09
-4.00256e-09
-1.00742e-08
-4.14278e-09
-1.15936e-08
-4.18412e-09
-1.30309e-08
-4.11853e-09
-1.43382e-08
-3.94067e-09
-1.54694e-08
-3.6494e-09
-1.63821e-08
-3.24854e-09
-1.70401e-08
-2.74685e-09
-1.74144e-08
-2.1574e-09
-1.74842e-08
-1.49669e-09
-7.83961e-10
-1.72378e-08
-1.81264e-10
-2.00936e-10
-6.40777e-10
-7.57562e-10
-1.32167e-09
-1.27456e-09
-2.18388e-09
-1.70088e-09
-3.19398e-09
-2.04705e-09
-4.3222e-09
-2.32871e-09
-5.53964e-09
-2.55454e-09
-6.81618e-09
-2.72602e-09
-8.11933e-09
-2.83962e-09
-9.414e-09
-2.88945e-09
-1.06631e-08
-2.86942e-09
-1.18288e-08
-2.77501e-09
-1.28738e-08
-2.60436e-09
-1.37635e-08
-2.35885e-09
-1.44671e-08
-2.04326e-09
-1.49591e-08
-1.66542e-09
-1.52202e-08
-1.23562e-09
-7.6623e-10
-1.52379e-08
-1.14688e-10
-8.62477e-11
-4.34913e-10
-4.37336e-10
-9.31661e-10
-7.77815e-10
-1.57544e-09
-1.0571e-09
-2.3398e-09
-1.2827e-09
-3.20178e-09
-1.46673e-09
-4.14004e-09
-1.61628e-09
-5.13291e-09
-1.73315e-09
-6.15712e-09
-1.81541e-09
-7.18735e-09
-1.85922e-09
-8.19642e-09
-1.86036e-09
-9.15603e-09
-1.81541e-09
-1.00379e-08
-1.72253e-09
-1.08148e-08
-1.58188e-09
-1.14623e-08
-1.39579e-09
-1.19591e-08
-1.16858e-09
-1.22885e-08
-9.0622e-10
-6.16049e-10
-1.24387e-08
-6.26158e-11
-2.36319e-11
-2.70617e-10
-2.29335e-10
-6.1315e-10
-4.35282e-10
-1.06807e-09
-6.02176e-10
-1.61486e-09
-7.35912e-10
-2.23652e-09
-8.45073e-10
-2.91803e-09
-9.34771e-10
-3.64464e-09
-1.00653e-09
-4.40066e-09
-1.0594e-09
-5.16881e-09
-1.09107e-09
-5.93026e-09
-1.0989e-09
-6.66505e-09
-1.08062e-09
-7.35278e-09
-1.03479e-09
-7.97354e-09
-9.61123e-10
-8.50876e-09
-8.6057e-10
-8.94206e-09
-7.35287e-10
-9.25985e-09
-5.88429e-10
-4.23913e-10
-9.45199e-09
-2.65151e-11
2.88322e-12
-1.51258e-10
-1.04592e-10
-3.7275e-10
-2.1379e-10
-6.74218e-10
-3.00708e-10
-1.04046e-09
-3.69667e-10
-1.4596e-09
-4.25939e-10
-1.92174e-09
-4.72629e-10
-2.41753e-09
-5.10741e-10
-2.93708e-09
-5.3985e-10
-3.46939e-09
-5.58758e-10
-4.00227e-09
-5.66023e-10
-4.52255e-09
-5.60343e-10
-5.01652e-09
-5.40823e-10
-5.47051e-09
-5.07129e-10
-5.87152e-09
-4.5956e-10
-6.20778e-09
-3.99033e-10
-6.4692e-09
-3.27003e-10
-2.45264e-10
-6.64785e-09
-5.17349e-12
8.05671e-12
-7.22979e-11
-3.74678e-11
-2.02991e-10
-8.30969e-11
-3.85043e-10
-1.18656e-10
-6.08156e-10
-1.46554e-10
-8.64787e-10
-1.69308e-10
-1.14905e-09
-1.88364e-10
-1.45559e-09
-2.04208e-10
-1.77875e-09
-2.16686e-10
-2.1122e-09
-2.25303e-10
-2.44878e-09
-2.29442e-10
-2.7806e-09
-2.28525e-10
-3.0993e-09
-2.22127e-10
-3.39638e-09
-2.10046e-10
-3.66361e-09
-1.92326e-10
-3.89338e-09
-1.69267e-10
-4.07901e-09
-1.41379e-10
-1.09302e-10
-4.21497e-09
4.12622e-12
3.93049e-12
-2.5862e-11
-7.47963e-12
-9.06926e-11
-1.82663e-11
-1.82867e-10
-2.64821e-11
-2.96582e-10
-3.2839e-11
-4.27867e-10
-3.80229e-11
-5.73819e-10
-4.24119e-11
-7.31892e-10
-4.61342e-11
-8.9942e-10
-4.91583e-11
-1.07336e-09
-5.13663e-11
-1.25019e-09
-5.26078e-11
-1.42598e-09
-5.2738e-11
-1.59646e-09
-5.16437e-11
-1.75725e-09
-4.92609e-11
-1.90399e-09
-4.55819e-11
-2.0326e-09
-4.06566e-11
-2.13941e-09
-3.45696e-11
-2.7453e-11
-2.22126e-09
3.93049e-12
-3.54914e-12
-2.18155e-11
-4.82976e-11
-8.11366e-11
-1.19159e-10
-1.61571e-10
-2.07706e-10
-2.56864e-10
-3.0823e-10
-3.60838e-10
-4.13576e-10
-4.6522e-10
-5.14481e-10
-5.60063e-10
-6.00719e-10
-6.35289e-10
-6.62742e-10
4.72159e-11
-4.72159e-11
1.61804e-10
-1.14588e-10
3.14262e-10
-1.52457e-10
4.7772e-10
-1.63459e-10
6.31115e-10
-1.53395e-10
7.58602e-10
-1.27486e-10
8.48722e-10
-9.01207e-11
8.93584e-10
-4.48613e-11
8.87914e-10
5.66981e-12
8.28765e-10
5.91491e-11
7.14331e-10
1.14434e-10
5.43799e-10
1.70532e-10
3.16842e-10
2.26957e-10
3.33185e-11
2.83524e-10
-3.06958e-10
3.40277e-10
-7.04355e-10
3.97397e-10
-1.15947e-09
4.55119e-10
-1.67315e-09
5.13681e-10
-2.24642e-09
5.73267e-10
-2.88037e-09
6.33952e-10
-3.57604e-09
6.95669e-10
-4.33422e-09
7.5818e-10
-5.15528e-09
8.21053e-10
-6.03894e-09
8.83663e-10
-6.98412e-09
9.45183e-10
-7.98872e-09
1.0046e-09
-9.04944e-09
1.06072e-09
-1.01617e-08
1.11221e-09
-1.13193e-08
1.15762e-09
-1.25147e-08
1.1954e-09
-1.37386e-08
1.22396e-09
-1.49803e-08
1.24171e-09
-1.62275e-08
1.24712e-09
-1.74662e-08
1.23875e-09
-1.86815e-08
1.21533e-09
-1.98573e-08
1.17578e-09
-2.09766e-08
1.1193e-09
-2.2022e-08
1.04542e-09
-2.2976e-08
9.53994e-10
-2.38213e-08
8.45279e-10
-2.45413e-08
7.19934e-10
-2.51203e-08
5.79027e-10
-2.55443e-08
4.24029e-10
-2.58011e-08
2.56794e-10
-2.58809e-08
7.97512e-11
-2.5775e-08
-1.05838e-10
-2.54793e-08
-2.95712e-10
-2.49915e-08
-4.87762e-10
-2.43125e-08
-6.79022e-10
-2.34459e-08
-8.66585e-10
-2.23982e-08
-1.04769e-09
-2.11784e-08
-1.21979e-09
-1.97978e-08
-1.3806e-09
-1.82697e-08
-1.52816e-09
-1.66088e-08
-1.66091e-09
-1.48311e-08
-1.77767e-09
-1.29534e-08
-1.87768e-09
-1.09929e-08
-1.96057e-09
-8.96657e-09
-2.02629e-09
-6.89147e-09
-2.0751e-09
-4.78401e-09
-2.10746e-09
-2.66007e-09
-2.12394e-09
-5.35029e-10
-2.12504e-09
1.57646e-09
-2.11149e-09
3.66024e-09
-2.08378e-09
5.70213e-09
-2.0419e-09
7.68811e-09
-1.98598e-09
9.60406e-09
-1.91595e-09
1.14355e-08
-1.83145e-09
1.31675e-08
-1.73195e-09
1.47843e-08
-1.61683e-09
1.62698e-08
-1.48549e-09
1.76073e-08
-1.33751e-09
1.87801e-08
-1.17277e-09
1.97717e-08
-9.91632e-10
2.05668e-08
-7.9506e-10
2.11515e-08
-5.84747e-10
2.15147e-08
-3.63214e-10
2.16487e-08
-1.33973e-10
2.15493e-08
9.94008e-11
2.12185e-08
3.30814e-10
2.06628e-08
5.55671e-10
1.98948e-08
7.67994e-10
1.89329e-08
9.61938e-10
1.78009e-08
1.13199e-09
1.65276e-08
1.2733e-09
1.51455e-08
1.38207e-09
1.36897e-08
1.4558e-09
1.21962e-08
1.49355e-09
1.07002e-08
1.496e-09
9.23477e-09
1.46539e-09
7.82939e-09
1.40538e-09
6.50871e-09
1.32069e-09
5.29196e-09
1.21674e-09
4.1927e-09
1.09926e-09
3.21882e-09
9.73874e-10
2.37299e-09
8.45838e-10
1.65309e-09
7.19893e-10
1.0529e-09
6.00191e-10
5.62627e-10
4.90276e-10
1.69581e-10
3.93046e-10
-1.4108e-10
3.1066e-10
-3.85436e-10
2.44356e-10
-5.79717e-10
1.94281e-10
-7.39181e-10
1.59464e-10
-8.77095e-10
1.37914e-10
-1.00397e-09
1.26878e-10
-1.12718e-09
1.23211e-10
-1.25096e-09
1.23776e-10
-1.37675e-09
1.25787e-10
-1.50379e-09
1.27039e-10
-1.62978e-09
1.25997e-10
-1.75156e-09
1.2178e-10
-1.86563e-09
1.14072e-10
-1.96863e-09
1.02996e-10
-2.05761e-09
8.89814e-11
-2.13026e-09
7.26521e-11
-2.185e-09
5.47326e-11
-2.22097e-09
3.59756e-11
-2.23808e-09
1.71035e-11
-2.23695e-09
-1.12888e-12
-2.21859e-09
-1.83587e-11
-2.18472e-09
-3.38715e-11
-2.13728e-09
-4.74338e-11
-2.0785e-09
-5.87866e-11
-2.01069e-09
-6.78059e-11
-1.93622e-09
-7.44755e-11
-1.85734e-09
-7.88714e-11
-1.7762e-09
-8.1146e-11
-1.69469e-09
-8.15094e-11
-1.61448e-09
-8.02106e-11
-1.53696e-09
-7.75207e-11
-1.46324e-09
-7.37163e-11
-1.39417e-09
-6.90672e-11
-1.33035e-09
-6.38257e-11
-1.27213e-09
-5.82192e-11
-1.21968e-09
-5.2446e-11
-1.17301e-09
-4.66731e-11
-1.13197e-09
-4.10357e-11
-1.09633e-09
-3.56392e-11
-1.06577e-09
-3.05613e-11
-1.03992e-09
-2.58553e-11
-1.01836e-09
-2.15536e-11
-1.00069e-09
-1.76715e-11
-9.86483e-10
-1.42102e-11
-9.75322e-10
-1.11605e-11
-9.66817e-10
-8.50523e-12
-9.60595e-10
-6.22151e-12
-9.56312e-10
-4.28307e-12
-9.53649e-10
-2.66288e-12
-9.52314e-10
-1.33519e-12
-9.52068e-10
-2.45977e-13
-9.52676e-10
6.07514e-13
-9.53919e-10
1.24289e-12
-9.55637e-10
1.71819e-12
-9.57682e-10
2.04492e-12
-9.5993e-10
2.24831e-12
-9.62283e-10
2.35259e-12
-9.64663e-10
2.3809e-12
-9.67019e-10
2.35555e-12
-9.69317e-10
2.29754e-12
-9.71543e-10
2.22601e-12
-9.73699e-10
2.15685e-12
-9.758e-10
2.10099e-12
-9.77862e-10
2.0617e-12
-9.79894e-10
2.03164e-12
-9.81883e-10
1.98935e-12
-9.83779e-10
1.89566e-12
-9.85469e-10
1.69062e-12
-9.8676e-10
1.29065e-12
-9.87364e-10
6.0361e-13
-9.86829e-10
-5.34602e-13
-9.84555e-10
-2.27447e-12
-9.7977e-10
-4.78475e-12
-9.71412e-10
-8.35797e-12
-9.58033e-10
-1.33789e-11
-9.37388e-10
-2.0645e-11
-9.04844e-10
-3.25442e-11
-8.5482e-10
-5.00234e-11
-1.07905e-10
-7.46915e-10
8.26428e-11
-1.29859e-10
2.56911e-10
-2.88857e-10
4.66258e-10
-3.61804e-10
6.65932e-10
-3.63133e-10
8.1949e-10
-3.06952e-10
8.98025e-10
-2.06021e-10
8.79212e-10
-7.13082e-11
7.46208e-10
8.81429e-11
4.86759e-10
2.65119e-10
9.18337e-11
4.54074e-10
-4.44728e-10
6.50995e-10
-1.12731e-09
8.53111e-10
-1.95902e-09
1.05867e-09
-2.94223e-09
1.26673e-09
-4.07885e-09
1.4769e-09
-5.37057e-09
1.68911e-09
-6.8189e-09
1.90345e-09
-8.42515e-09
2.11994e-09
-1.01903e-08
2.33837e-09
-1.21145e-08
2.55817e-09
-1.41971e-08
2.7783e-09
-1.64361e-08
2.99715e-09
-1.88275e-08
3.2125e-09
-2.13654e-08
3.42153e-09
-2.4041e-08
3.62082e-09
-2.68428e-08
3.80639e-09
-2.9756e-08
3.97385e-09
-3.27622e-08
4.11841e-09
-3.58396e-08
4.23509e-09
-3.8963e-08
4.31881e-09
-4.21037e-08
4.36459e-09
-4.52297e-08
4.3677e-09
-4.83064e-08
4.32383e-09
-5.12969e-08
4.22925e-09
-5.41625e-08
4.08101e-09
-5.68638e-08
3.87706e-09
-5.93609e-08
3.61637e-09
-6.16145e-08
3.29906e-09
-6.35869e-08
2.92641e-09
-6.52426e-08
2.50094e-09
-6.65491e-08
2.02638e-09
-6.74776e-08
1.5076e-09
-6.80041e-08
9.50517e-10
-6.81094e-08
3.62051e-10
-6.77793e-08
-2.50311e-10
-6.70065e-08
-8.7867e-10
-6.57884e-08
-1.51377e-09
-6.41291e-08
-2.1471e-09
-6.20381e-08
-2.77006e-09
-5.95302e-08
-3.37441e-09
-5.66255e-08
-3.95245e-09
-5.33481e-08
-4.49721e-09
-4.9726e-08
-5.00267e-09
-4.57903e-08
-5.46382e-09
-4.15744e-08
-5.87679e-09
-3.71133e-08
-6.23882e-09
-3.24427e-08
-6.54832e-09
-2.75985e-08
-6.80472e-09
-2.26164e-08
-7.00837e-09
-1.75312e-08
-7.16036e-09
-1.23763e-08
-7.26227e-09
-7.18432e-09
-7.31597e-09
-1.98609e-09
-7.32326e-09
3.18804e-09
-7.28563e-09
8.30832e-09
-7.20406e-09
1.33455e-08
-7.0791e-09
1.82704e-08
-6.91083e-09
2.30529e-08
-6.69848e-09
2.76619e-08
-6.44049e-09
3.20646e-08
-6.13463e-09
3.62261e-08
-5.77832e-09
4.01095e-08
-5.36891e-09
4.36761e-08
-4.90407e-09
4.68856e-08
-4.38223e-09
4.9697e-08
-3.80308e-09
5.207e-08
-3.16803e-09
5.39659e-08
-2.48065e-09
5.53497e-08
-1.74706e-09
5.61919e-08
-9.76195e-10
5.64705e-08
-1.79199e-10
5.6174e-08
6.27344e-10
5.53018e-08
1.42785e-09
5.3867e-08
2.20281e-09
5.18969e-08
2.93203e-09
4.94337e-08
3.59521e-09
4.65339e-08
4.17308e-09
4.32672e-08
4.64877e-09
3.9714e-08
5.00904e-09
3.59621e-08
5.2454e-09
3.21033e-08
5.35484e-09
2.82285e-08
5.34022e-09
2.44238e-08
5.21006e-09
2.07666e-08
4.97784e-09
1.73225e-08
4.66088e-09
1.41428e-08
4.27894e-09
1.12639e-08
3.8528e-09
8.70677e-09
3.40295e-09
6.47797e-09
2.9487e-09
4.57064e-09
2.50751e-09
2.96633e-09
2.09459e-09
1.63689e-09
1.72248e-09
5.46962e-10
1.40059e-09
-3.43362e-10
1.13468e-09
-1.0754e-09
9.2632e-10
-1.68876e-09
7.72826e-10
-2.21861e-09
6.67759e-10
-2.69362e-09
6.01893e-10
-3.1349e-09
5.64488e-10
-3.5558e-09
5.4468e-10
-3.96269e-09
5.32673e-10
-4.35621e-09
5.20554e-10
-4.73287e-09
5.02664e-10
-5.08669e-09
4.75592e-10
-5.41052e-09
4.37908e-10
-5.69728e-09
3.8976e-10
-5.94074e-09
3.32433e-10
-6.13604e-09
2.67954e-10
-6.28006e-09
1.98752e-10
-6.37148e-09
1.27396e-10
-6.41077e-09
5.63963e-11
-6.39997e-09
-1.1926e-11
-6.34269e-09
-7.5644e-11
-6.2435e-09
-1.33063e-10
-6.10792e-09
-1.83013e-10
-5.942e-09
-2.24703e-10
-5.75206e-09
-2.57748e-10
-5.5444e-09
-2.82134e-10
-5.3251e-09
-2.9817e-10
-5.09982e-09
-3.06431e-10
-4.87364e-09
-3.07689e-10
-4.651e-09
-3.02852e-10
-4.43561e-09
-2.92904e-10
-4.23048e-09
-2.78848e-10
-4.03789e-09
-2.61661e-10
-3.85946e-09
-2.42259e-10
-3.6962e-09
-2.21472e-10
-3.54862e-09
-2.00025e-10
-3.41677e-09
-1.78531e-10
-3.30031e-09
-1.5749e-10
-3.19865e-09
-1.37296e-10
-3.11097e-09
-1.18241e-10
-3.0363e-09
-1.0053e-10
-2.97356e-09
-8.42921e-11
-2.92164e-09
-6.95903e-11
-2.87941e-09
-5.64381e-11
-2.84577e-09
-4.48083e-11
-2.81963e-09
-3.46431e-11
-2.79999e-09
-2.58634e-11
-2.78589e-09
-1.83758e-11
-2.77648e-09
-1.20783e-11
-2.77095e-09
-6.86437e-12
-2.76858e-09
-2.61944e-12
-2.76873e-09
7.58846e-13
-2.77084e-09
3.35919e-12
-2.77443e-09
5.30444e-12
-2.77907e-09
6.68159e-12
-2.7844e-09
7.58313e-12
-2.79015e-09
8.0982e-12
-2.79608e-09
8.3127e-12
-2.80203e-09
8.30859e-12
-2.8079e-09
8.16262e-12
-2.81361e-09
7.94354e-12
-2.81916e-09
7.70709e-12
-2.82455e-09
7.48924e-12
-2.82979e-09
7.29694e-12
-2.83485e-09
7.09649e-12
-2.83967e-09
6.80142e-12
-2.84403e-09
6.25975e-12
-2.84758e-09
5.24342e-12
-2.84973e-09
3.43954e-12
-2.84959e-09
4.59743e-13
-2.8459e-09
-4.2172e-12
-2.83702e-09
-1.11609e-11
-2.82071e-09
-2.10907e-11
-2.79413e-09
-3.49421e-11
-2.75345e-09
-5.40549e-11
-2.69323e-09
-8.08708e-11
-2.60522e-09
-1.20553e-10
-2.47444e-09
-1.808e-10
-3.02815e-10
-2.27953e-09
6.2502e-11
-1.92361e-10
1.7237e-10
-3.98725e-10
2.68979e-10
-4.58412e-10
3.04819e-10
-3.98974e-10
2.41621e-10
-2.43755e-10
4.85116e-11
-1.29115e-11
-2.99094e-10
2.76297e-10
-8.20752e-10
6.09801e-10
-1.53176e-09
9.7613e-10
-2.44407e-09
1.36639e-09
-3.56696e-09
1.77388e-09
-4.90766e-09
2.19381e-09
-6.47182e-09
2.62284e-09
-8.26387e-09
3.05879e-09
-1.02872e-08
3.50024e-09
-1.25443e-08
3.94616e-09
-1.50364e-08
4.39558e-09
-1.77637e-08
4.84728e-09
-2.07248e-08
5.29948e-09
-2.39163e-08
5.74964e-09
-2.73323e-08
6.19428e-09
-3.0964e-08
6.62883e-09
-3.47991e-08
7.04763e-09
-3.88215e-08
7.44395e-09
-4.30107e-08
7.81006e-09
-4.73418e-08
8.13743e-09
-5.17848e-08
8.41692e-09
-5.63055e-08
8.63904e-09
-6.08647e-08
8.79427e-09
-6.54192e-08
8.87334e-09
-6.99222e-08
8.86761e-09
-7.43239e-08
8.76935e-09
-7.85721e-08
8.57207e-09
-8.26137e-08
8.27082e-09
-8.63951e-08
7.8624e-09
-8.98636e-08
7.34559e-09
-9.29684e-08
6.72124e-09
-9.56618e-08
5.99241e-09
-9.78997e-08
5.16429e-09
-9.96429e-08
4.24417e-09
-1.00858e-07
3.24132e-09
-1.01517e-07
2.16678e-09
-1.016e-07
1.0331e-09
-1.01092e-07
-1.45779e-10
-9.99868e-08
-1.35527e-09
-9.82858e-08
-2.57971e-09
-9.5996e-08
-3.80354e-09
-9.31317e-08
-5.01146e-09
-8.9713e-08
-6.1887e-09
-8.57661e-08
-7.32137e-09
-8.13217e-08
-8.39681e-09
-7.64151e-08
-9.40382e-09
-7.10848e-08
-1.03329e-08
-6.53722e-08
-1.11764e-08
-5.93203e-08
-1.19287e-08
-5.2973e-08
-1.25861e-08
-4.63746e-08
-1.31467e-08
-3.95689e-08
-1.36104e-08
-3.25987e-08
-1.39786e-08
-2.55052e-08
-1.42539e-08
-1.8328e-08
-1.44394e-08
-1.1105e-08
-1.4539e-08
-3.87231e-09
-1.4556e-08
3.33518e-09
-1.44931e-08
1.04831e-08
-1.43519e-08
1.75372e-08
-1.41332e-08
2.44632e-08
-1.38368e-08
3.12254e-08
-1.34607e-08
3.77862e-08
-1.30012e-08
4.41052e-08
-1.24536e-08
5.01389e-08
-1.18121e-08
5.58404e-08
-1.10703e-08
6.11588e-08
-1.02225e-08
6.60405e-08
-9.26386e-09
7.04287e-08
-8.19134e-09
7.42656e-08
-7.00485e-09
7.74929e-08
-5.70795e-09
8.00545e-08
-4.30869e-09
8.18985e-08
-2.82024e-09
8.29807e-08
-1.2614e-09
8.32654e-08
3.42666e-10
8.27316e-08
1.96171e-09
8.13741e-08
3.56031e-09
7.92068e-08
5.09932e-09
7.62645e-08
6.53747e-09
7.26042e-08
7.83338e-09
6.83048e-08
8.94813e-09
6.34659e-08
9.84796e-09
5.82043e-08
1.0507e-08
5.26496e-08
1.09096e-08
4.6938e-08
1.10518e-08
4.1206e-08
1.09421e-08
3.55829e-08
1.06009e-08
3.0185e-08
1.00588e-08
2.51101e-08
9.35385e-09
2.04339e-08
8.52897e-09
1.62083e-08
7.62858e-09
1.24608e-08
6.69615e-09
9.19619e-09
5.77216e-09
6.39826e-09
4.89252e-09
4.03345e-09
4.08729e-09
2.05466e-09
3.37938e-09
4.05952e-10
2.78339e-09
-9.72498e-10
2.30477e-09
-2.13934e-09
1.93967e-09
-3.14759e-09
1.67602e-09
-4.04149e-09
1.49579e-09
-4.8546e-09
1.3776e-09
-5.60947e-09
1.29955e-09
-6.31849e-09
1.24169e-09
-6.98561e-09
1.18768e-09
-7.60863e-09
1.12568e-09
-8.18135e-09
1.04831e-09
-8.6957e-09
9.5226e-10
-9.14337e-09
8.37431e-10
-9.51707e-09
7.06128e-10
-9.81134e-09
5.62224e-10
-1.00231e-08
4.10468e-10
-1.01516e-08
2.55934e-10
-1.01988e-08
1.03598e-10
-1.01687e-08
-4.1975e-11
-1.00675e-08
-1.76862e-10
-9.90271e-09
-2.9788e-10
-9.68302e-09
-4.02699e-10
-9.41789e-09
-4.89837e-10
-9.11701e-09
-5.58626e-10
-8.79e-09
-6.09143e-10
-8.44606e-09
-6.42112e-10
-8.09371e-09
-6.58782e-10
-7.7406e-09
-6.60797e-10
-7.39338e-09
-6.50068e-10
-7.05764e-09
-6.28652e-10
-6.73784e-09
-5.98639e-10
-6.43744e-09
-5.62064e-10
-6.15887e-09
-5.20834e-10
-5.90366e-09
-4.76674e-10
-5.67259e-09
-4.31099e-10
-5.46573e-09
-3.85391e-10
-5.28262e-09
-3.40602e-10
-5.12235e-09
-2.9756e-10
-4.98371e-09
-2.56888e-10
-4.86521e-09
-2.19023e-10
-4.76526e-09
-1.84244e-10
-4.68216e-09
-1.52695e-10
-4.61418e-09
-1.24413e-10
-4.55964e-09
-9.93488e-11
-4.5169e-09
-7.73875e-11
-4.48439e-09
-5.83689e-11
-4.46067e-09
-4.21003e-11
-4.44437e-09
-2.83696e-11
-4.43429e-09
-1.69539e-11
-4.42928e-09
-7.6259e-12
-4.42836e-09
-1.64186e-13
-4.43065e-09
5.64857e-12
-4.43537e-09
1.00294e-11
-4.44187e-09
1.318e-11
-4.44958e-09
1.52958e-11
-4.45805e-09
1.65654e-11
-4.46691e-09
1.71697e-11
-4.47588e-09
1.72807e-11
-4.48477e-09
1.70581e-11
-4.49347e-09
1.6643e-11
-4.50191e-09
1.61477e-11
-4.51006e-09
1.5641e-11
-4.5179e-09
1.51284e-11
-4.52533e-09
1.45292e-11
-4.53218e-09
1.36504e-11
-4.53808e-09
1.21615e-11
-4.54241e-09
9.57303e-12
-4.54419e-09
5.2214e-12
-4.542e-09
-1.7358e-12
-4.53387e-09
-1.23389e-11
-4.51723e-09
-2.78091e-11
-4.4887e-09
-4.96194e-11
-4.44403e-09
-7.96118e-11
-4.37775e-09
-1.20328e-10
-4.28272e-09
-1.75902e-10
-4.14946e-09
-2.53814e-10
-3.96307e-09
-3.67191e-10
-5.40608e-10
-3.72528e-09
7.49779e-12
-1.99858e-10
-2.9822e-11
-3.61405e-10
-1.61139e-10
-3.27095e-10
-4.25817e-10
-1.34296e-10
-8.55648e-10
1.86076e-10
-1.47645e-09
6.0789e-10
-2.30944e-09
1.10929e-09
-3.37194e-09
1.6723e-09
-4.67827e-09
2.28247e-09
-6.24035e-09
2.92846e-09
-8.06805e-09
3.60159e-09
-1.01696e-08
4.29531e-09
-1.25515e-08
5.00476e-09
-1.52189e-08
5.72619e-09
-1.81752e-08
6.45654e-09
-2.1422e-08
7.19293e-09
-2.49586e-08
7.93222e-09
-2.87819e-08
8.67059e-09
-3.28856e-08
9.4032e-09
-3.72599e-08
1.01239e-08
-4.18907e-08
1.08251e-08
-4.67596e-08
1.14977e-08
-5.18427e-08
1.21308e-08
-5.71112e-08
1.27124e-08
-6.25304e-08
1.32293e-08
-6.80604e-08
1.36674e-08
-7.36559e-08
1.40124e-08
-7.92666e-08
1.42498e-08
-8.48382e-08
1.43659e-08
-9.03129e-08
1.43481e-08
-9.56305e-08
1.41852e-08
-1.00729e-07
1.38682e-08
-1.05548e-07
1.33905e-08
-1.10025e-07
1.27481e-08
-1.14103e-07
1.19401e-08
-1.17726e-07
1.09686e-08
-1.20843e-07
9.83881e-09
-1.2341e-07
8.55907e-09
-1.25386e-07
7.14063e-09
-1.2674e-07
5.59743e-09
-1.27444e-07
3.94582e-09
-1.27482e-07
2.20418e-09
-1.26841e-07
3.92634e-10
-1.2552e-07
-1.46738e-09
-1.23521e-07
-3.35382e-09
-1.20856e-07
-5.24428e-09
-1.17543e-07
-7.11674e-09
-1.13605e-07
-8.94981e-09
-1.0907e-07
-1.07232e-08
-1.03974e-07
-1.24182e-08
-9.83526e-08
-1.40178e-08
-9.22488e-08
-1.55076e-08
-8.57065e-08
-1.68753e-08
-7.87715e-08
-1.81114e-08
-7.14909e-08
-1.92094e-08
-6.39117e-08
-2.01652e-08
-5.60807e-08
-2.09777e-08
-4.80433e-08
-2.16478e-08
-3.98431e-08
-2.21788e-08
-3.15219e-08
-2.25751e-08
-2.3119e-08
-2.28423e-08
-1.46715e-08
-2.29865e-08
-6.21447e-09
-2.3013e-08
2.21885e-09
-2.29264e-08
1.05963e-08
-2.27294e-08
1.88855e-08
-2.24225e-08
2.70535e-08
-2.20049e-08
3.50659e-08
-2.14731e-08
4.28856e-08
-2.0821e-08
5.04723e-08
-2.00403e-08
5.77812e-08
-1.9121e-08
6.47633e-08
-1.80524e-08
7.1364e-08
-1.68233e-08
7.7524e-08
-1.54239e-08
8.31793e-08
-1.38467e-08
8.82622e-08
-1.20877e-08
9.27022e-08
-1.0148e-08
9.64283e-08
-8.03475e-09
9.93707e-08
-5.76264e-09
1.01464e-07
-3.35467e-09
1.0265e-07
-8.42941e-10
1.02881e-07
1.73074e-09
1.02125e-07
4.31595e-09
1.0037e-07
6.85413e-09
9.76265e-08
9.28099e-09
9.39309e-08
1.1529e-08
8.93481e-08
1.35309e-08
8.3972e-08
1.52241e-08
7.79239e-08
1.65551e-08
7.13489e-08
1.74845e-08
6.44103e-08
1.79904e-08
5.72811e-08
1.80713e-08
5.01352e-08
1.77468e-08
4.31376e-08
1.70563e-08
3.64359e-08
1.60556e-08
3.01523e-08
1.48125e-08
2.43794e-08
1.34015e-08
1.91773e-08
1.18983e-08
1.45735e-08
1.03759e-08
1.05655e-08
8.90051e-09
7.12438e-09
7.5284e-09
4.20027e-09
6.30349e-09
1.72877e-09