/*--------------------------------*- C++ -*----------------------------------*\
  =========                 |
  \\      /  F ield         | OpenFOAM: The Open Source CFD Toolbox
   \\    /   O peration     | Website:  https://openfoam.org
    \\  /    A nd           | Version:  8
     \\/     M anipulation  |
\*---------------------------------------------------------------------------*/
FoamFile
{
    version     2.0;
    format      ascii;
    class       volVectorField;
    location    "0.86";
    object      U;
}
// * * * * * * * * * * * * * * * * * * * * * * * * * * * * * * * * * * * * * //

dimensions      [0 1 -1 0 0 0 0];

internalField   nonuniform List<vector> 
12225
(
(-7.58279e-06 1.03075e-06 0)
(-3.67351e-06 -5.68773e-07 0)
(2.90274e-05 -1.45478e-06 0)
(8.20127e-05 -2.2336e-06 0)
(0.000151492 -2.89847e-06 0)
(0.000234294 -3.52948e-06 0)
(0.000328591 -4.15297e-06 0)
(0.000433083 -4.79654e-06 0)
(0.000546908 -5.48835e-06 0)
(0.000669597 -6.27393e-06 0)
(0.000801187 -7.23169e-06 0)
(0.000942371 -8.49757e-06 0)
(0.00109463 -1.03153e-05 0)
(0.00125969 -1.30654e-05 0)
(0.00143674 -1.64599e-05 0)
(0.0016167 -1.52157e-05 0)
(0.00171869 -1.86047e-05 0)
(9.46833e-05 0.00110551 0)
(-1.55401e-05 2.66746e-06 0)
(5.29506e-06 -8.86648e-06 0)
(0.000104321 -2.0269e-05 0)
(0.000261317 -3.0124e-05 0)
(0.000465705 -3.88873e-05 0)
(0.000708512 -4.70594e-05 0)
(0.00098405 -5.49596e-05 0)
(0.00128798 -6.27965e-05 0)
(0.00161693 -7.0751e-05 0)
(0.00196817 -7.90527e-05 0)
(0.00233956 -8.80175e-05 0)
(0.00272906 -9.80052e-05 0)
(0.00313326 -0.000109102 0)
(0.00354197 -0.00011965 0)
(0.00392263 -0.000119181 0)
(0.00416983 -5.3991e-05 0)
(0.0039811 0.000304614 0)
(0.000838516 0.00276958 0)
(-1.80406e-05 3.19211e-06 0)
(2.92522e-05 -2.83067e-05 0)
(0.000197923 -6.11635e-05 0)
(0.000459815 -8.99196e-05 0)
(0.00079836 -0.000115676 0)
(0.00119917 -0.000139607 0)
(0.0016524 -0.000162518 0)
(0.00215011 -0.000184863 0)
(0.00268543 -0.000206943 0)
(0.00325184 -0.000229004 0)
(0.00384245 -0.000251154 0)
(0.00444813 -0.000272821 0)
(0.00505303 -0.000290909 0)
(0.00562218 -0.000293825 0)
(0.00607101 -0.000240576 0)
(0.00617842 1.4705e-05 0)
(0.00547525 0.00098468 0)
(0.00175792 0.00475948 0)
(-1.64149e-05 2.89937e-07 0)
(6.61942e-05 -6.23646e-05 0)
(0.000307732 -0.000128758 0)
(0.000674544 -0.000187512 0)
(0.00114491 -0.000240375 0)
(0.00169945 -0.000289339 0)
(0.00232397 -0.000335799 0)
(0.00300628 -0.000380408 0)
(0.00373499 -0.000423356 0)
(0.00449813 -0.000464407 0)
(0.00528143 -0.000502422 0)
(0.00606467 -0.000533689 0)
(0.00681363 -0.000547163 0)
(0.00746147 -0.000511244 0)
(0.00786952 -0.000335226 0)
(0.00773623 0.000242942 0)
(0.00655672 0.00197472 0)
(0.00279723 0.0068762 0)
(-1.18057e-05 -8.7403e-06 0)
(0.000113761 -0.00011437 0)
(0.000430764 -0.000226435 0)
(0.000901309 -0.000326593 0)
(0.00149924 -0.000417011 0)
(0.00220067 -0.000500489 0)
(0.00298686 -0.000578948 0)
(0.0038408 -0.000653006 0)
(0.00474556 -0.000722248 0)
(0.00568215 -0.000785031 0)
(0.00662667 -0.00083727 0)
(0.00754482 -0.000868967 0)
(0.00838105 -0.000855427 0)
(0.00903686 -0.000735675 0)
(0.00933272 -0.000358606 0)
(0.00894124 0.000645681 0)
(0.00742679 0.00315393 0)
(0.00390782 0.00891548 0)
(-5.16782e-06 -2.64501e-05 0)
(0.000169226 -0.000187941 0)
(0.000563065 -0.000357933 0)
(0.00113451 -0.000511096 0)
(0.00185347 -0.000649697 0)
(0.00269203 -0.00077719 0)
(0.00362677 -0.000895776 0)
(0.00463544 -0.00100559 0)
(0.00569465 -0.00110482 0)
(0.00677717 -0.00118909 0)
(0.00784796 -0.00124918 0)
(0.00885739 -0.00126524 0)
(0.00972919 -0.00119366 0)
(0.01034 -0.000938243 0)
(0.0104911 -0.000288338 0)
(0.00987894 0.00120263 0)
(0.00819221 0.00442535 0)
(0.00505075 0.0107956 0)
(2.68027e-06 -5.5187e-05 0)
(0.000229512 -0.00028678 0)
(0.000699714 -0.000527092 0)
(0.0013671 -0.000744884 0)
(0.0021979 -0.00094225 0)
(0.00316057 -0.00112302 0)
(0.00422711 -0.00128924 0)
(0.00536964 -0.00143988 0)
(0.00655782 -0.00157069 0)
(0.00775546 -0.00167294 0)
(0.008916 -0.00172987 0)
(0.00997525 -0.00170848 0)
(0.0108403 -0.00154271 0)
(0.011374 -0.0011004 0)
(0.0113819 -0.000122383 0)
(0.0106176 0.00187457 0)
(0.00890636 0.00571557 0)
(0.00619941 0.0124883 0)
(1.10264e-05 -9.70246e-05 0)
(0.00029124 -0.000414319 0)
(0.000834858 -0.000737346 0)
(0.00159058 -0.0010311 0)
(0.00252095 -0.0012974 0)
(0.00359128 -0.00154008 0)
(0.00476908 -0.0017604 0)
(0.00602088 -0.00195533 0)
(0.00730926 -0.00211691 0)
(0.0085892 -0.00223034 0)
(0.00980348 -0.00226906 0)
(0.0108761 -0.00218463 0)
(0.0117041 -0.00188759 0)
(0.0121494 -0.00121425 0)
(0.0120411 0.000125555 0)
(0.0112058 0.00261325 0)
(0.00958915 0.00696328 0)
(0.00733208 0.013975 0)
(1.92506e-05 -0.000153604 0)
(0.000350804 -0.000573359 0)
(0.000961817 -0.000991268 0)
(0.00179508 -0.00137167 0)
(0.00280936 -0.00171621 0)
(0.00396721 -0.00202836 0)
(0.00523207 -0.00230785 0)
(0.00656521 -0.00254862 0)
(0.00792259 -0.00273768 0)
(0.00925138 -0.00285255 0)
(0.0104858 -0.00285526 0)
(0.0115426 -0.00268104 0)
(0.0123164 -0.00221901 0)
(0.01268 -0.00128247 0)
(0.0124986 0.000429865 0)
(0.0116724 0.00336704 0)
(0.0102382 0.00811524 0)
(0.00842607 0.0152379 0)
(2.68026e-05 -0.000225931 0)
(0.000404456 -0.000765629 0)
(0.00107325 -0.00129005 0)
(0.00196958 -0.00176671 0)
(0.00304837 -0.00219754 0)
(0.00426988 -0.00258523 0)
(0.00559412 -0.00292722 0)
(0.00697785 -0.00321334 0)
(0.00837158 -0.00342438 0)
(0.00971653 -0.00352892 0)
(0.0109417 -0.00347683 0)
(0.0119615 -0.00318796 0)
(0.0126761 -0.00253449 0)
(0.0129781 -0.00131756 0)
(0.0127737 0.000756588 0)
(0.0120275 0.00408435 0)
(0.0108357 0.00912507 0)
(0.00945467 0.0162592 0)
(3.31923e-05 -0.000314255 0)
(0.000448421 -0.000991234 0)
(0.00116139 -0.00163288 0)
(0.00210224 -0.00221392 0)
(0.00322217 -0.00273733 0)
(0.00447977 -0.00320478 0)
(0.00583253 -0.00361066 0)
(0.00723397 -0.00393976 0)
(0.0086309 -0.00416565 0)
(0.00996122 -0.00424734 0)
(0.0111525 -0.00412296 0)
(0.0121224 -0.00369946 0)
(0.0127828 -0.00283837 0)
(0.013051 -0.00133998 0)
(0.0128736 0.00106707 0)
(0.0122643 0.00471611 0)
(0.0113525 0.00995219 0)
(0.010385 0.0170194 0)
(3.77029e-05 -0.00040942 0)
(0.000476607 -0.00122667 0)
(0.00121371 -0.00198426 0)
(0.00217446 -0.00266664 0)
(0.00330706 -0.00327874 0)
(0.00456927 -0.00382127 0)
(0.00591745 -0.00428527 0)
(0.00730368 -0.00465024 0)
(0.00867347 -0.00488268 0)
(0.00996455 -0.00493295 0)
(0.0111069 -0.00472973 0)
(0.0120254 -0.00417155 0)
(0.0126465 -0.00311653 0)
(0.0129117 -0.00137331 0)
(0.0127992 0.0012998 0)
(0.0123541 0.00517647 0)
(0.0117169 0.0105128 0)
(0.0111109 0.0174615 0)
(4.11682e-05 -0.000514311 0)
(0.000492137 -0.00148125 0)
(0.00123618 -0.00235908 0)
(0.00219597 -0.00314485 0)
(0.00331715 -0.00384626 0)
(0.00455753 -0.0044632 0)
(0.00587354 -0.0049831 0)
(0.0072174 -0.00537994 0)
(0.00853538 -0.00561315 0)
(0.00976753 -0.00562518 0)
(0.0108492 -0.0053371 0)
(0.0117153 -0.00464254 0)
(0.0123087 -0.00340142 0)
(0.0125933 -0.00143688 0)
(0.0125732 0.00145895 0)
(0.0123131 0.00550277 0)
(0.0119526 0.0108765 0)
(0.011687 0.0176656 0)
(4.3449e-05 -0.000644115 0)
(0.000490817 -0.00179328 0)
(0.00121702 -0.00281215 0)
(0.00214478 -0.00371686 0)
(0.00321827 -0.00451955 0)
(0.00439662 -0.0052193 0)
(0.0056382 -0.00579937 0)
(0.00689767 -0.00622743 0)
(0.00812497 -0.00645538 0)
(0.00926601 -0.00641808 0)
(0.0102655 -0.00603086 0)
(0.0110722 -0.00518641 0)
(0.0116479 -0.00375278 0)
(0.011979 -0.0015754 0)
(0.0120903 0.00151304 0)
(0.0120571 0.00567085 0)
(0.0120081 0.0110134 0)
(0.0121067 0.0175735 0)
(4.31214e-05 -0.000797426 0)
(0.000461172 -0.00215951 0)
(0.00112984 -0.00333727 0)
(0.00197666 -0.00437282 0)
(0.00294743 -0.0052851 0)
(0.00400482 -0.00607276 0)
(0.00511202 -0.00671478 0)
(0.00622953 -0.00717233 0)
(0.00731483 -0.00739024 0)
(0.00832397 -0.00729739 0)
(0.00921504 -0.00680667 0)
(0.00995387 -0.00581512 0)
(0.0105217 -0.00420567 0)
(0.0109241 -0.00185251 0)
(0.0111996 0.00136774 0)
(0.0114243 0.00555826 0)
(0.0117089 0.010779 0)
(0.0121831 0.0170244 0)
(3.83387e-05 -0.000964835 0)
(0.000388821 -0.00255729 0)
(0.000941737 -0.00390161 0)
(0.00163652 -0.00507069 0)
(0.00242645 -0.00609302 0)
(0.00328142 -0.00696782 0)
(0.00417329 -0.00767042 0)
(0.00507267 -0.00815653 0)
(0.00594916 -0.00836565 0)
(0.00677325 -0.00822371 0)
(0.00751979 -0.00764565 0)
(0.00817284 -0.00653837 0)
(0.00873138 -0.0048051 0)
(0.00921491 -0.00235218 0)
(0.00966731 0.000901192 0)
(0.0101572 0.00501067 0)
(0.0107727 0.00999367 0)
(0.0116121 0.0158191 0)
(2.71189e-05 -0.00112171 0)
(0.000258581 -0.00292822 0)
(0.000618367 -0.00442331 0)
(0.00106689 -0.00571027 0)
(0.00157374 -0.00682894 0)
(0.00212113 -0.00778063 0)
(0.00269399 -0.0085389 0)
(0.00327761 -0.00905646 0)
(0.00385799 -0.00927074 0)
(0.00442352 -0.00910886 0)
(0.00496758 -0.00849232 0)
(0.00549181 -0.00734208 0)
(0.0060094 -0.00558404 0)
(0.00654763 -0.00315546 0)
(0.00714868 -1.19812e-05 0)
(0.00786784 0.00386524 0)
(0.00877001 0.00846431 0)
(0.00992527 0.0137392 0)
(7.79083e-06 -0.00121857 0)
(6.02774e-05 -0.00315615 0)
(0.00013803 -0.0047413 0)
(0.000232061 -0.00609779 0)
(0.000338075 -0.00727508 0)
(0.00045607 -0.00827796 0)
(0.000587928 -0.00908115 0)
(0.000736973 -0.00963829 0)
(0.000908379 -0.00988919 0)
(0.00111008 -0.00976638 0)
(0.001354 -0.00920129 0)
(0.00165744 -0.00813016 0)
(0.00204417 -0.00649961 0)
(0.00254474 -0.00427177 0)
(0.0031958 -0.00142866 0)
(0.00403789 0.00202456 0)
(0.00511398 0.00605838 0)
(0.00647029 0.0106211 0)
(-2.05918e-05 -0.00117301 0)
(-0.000196821 -0.00304828 0)
(-0.000474319 -0.00458746 0)
(-0.000824923 -0.00590987 0)
(-0.00122084 -0.00706588 0)
(-0.00164165 -0.00806359 0)
(-0.00206753 -0.00888246 0)
(-0.00247665 -0.00948221 0)
(-0.00284481 -0.00981031 0)
(-0.00314535 -0.00980883 0)
(-0.00334933 -0.0094209 0)
(-0.00342584 -0.00859644 0)
(-0.00334262 -0.00729708 0)
(-0.00306694 -0.00550002 0)
(-0.00256707 -0.00320041 0)
(-0.00181355 -0.000412407 0)
(-0.000779735 0.00283107 0)
(0.000560635 0.00647979 0)
(-3.99753e-05 -0.000963971 0)
(-0.000388566 -0.00254846 0)
(-0.000938788 -0.00387797 0)
(-0.00163654 -0.00503729 0)
(-0.0024331 -0.00606495 0)
(-0.0032959 -0.00696926 0)
(-0.00419432 -0.00773578 0)
(-0.00509527 -0.00833338 0)
(-0.00596267 -0.00872007 0)
(-0.00675787 -0.0088489 0)
(-0.00744065 -0.00867352 0)
(-0.00797047 -0.00815325 0)
(-0.00830798 -0.00725725 0)
(-0.00841669 -0.00596767 0)
(-0.00826461 -0.00428137 0)
(-0.00782551 -0.00221046 0)
(-0.00707809 0.000218349 0)
(-0.00600391 0.00296523 0)
(-4.74398e-05 -0.000729943 0)
(-0.00047546 -0.00199196 0)
(-0.0011586 -0.00308469 0)
(-0.00203281 -0.00405204 0)
(-0.00304228 -0.00491901 0)
(-0.00415049 -0.00569325 0)
(-0.00532292 -0.00636582 0)
(-0.00652237 -0.00691413 0)
(-0.00770832 -0.00730612 0)
(-0.0088374 -0.0075048 0)
(-0.00986458 -0.00747285 0)
(-0.0107447 -0.00717682 0)
(-0.0114346 -0.00659073 0)
(-0.0118948 -0.00569864 0)
(-0.0120913 -0.00449621 0)
(-0.0119975 -0.00299107 0)
(-0.0115928 -0.0012023 0)
(-0.0108612 0.000840474 0)
(-4.60471e-05 -0.000504747 0)
(-0.000485891 -0.00145179 0)
(-0.00120283 -0.00230533 0)
(-0.00213332 -0.0030714 0)
(-0.00322258 -0.00376331 0)
(-0.00443437 -0.00438818 0)
(-0.00573403 -0.00494183 0)
(-0.00708447 -0.00540932 0)
(-0.00844532 -0.00576763 0)
(-0.00977316 -0.00598898 0)
(-0.0110225 -0.00604442 0)
(-0.0121474 -0.00590721 0)
(-0.0131034 -0.00555565 0)
(-0.0138495 -0.00497534 0)
(-0.0143502 -0.00416046 0)
(-0.0145772 -0.00311424 0)
(-0.0145087 -0.0018487 0)
(-0.0141287 -0.0003844 0)
(-3.82225e-05 -0.000317459 0)
(-0.000440557 -0.000992544 0)
(-0.00111904 -0.00162952 0)
(-0.00201674 -0.00220682 0)
(-0.00308405 -0.0027301 0)
(-0.00428684 -0.00320619 0)
(-0.00559242 -0.0036345 0)
(-0.00696644 -0.00400617 0)
(-0.0083717 -0.00430563 0)
(-0.00976797 -0.00451304 0)
(-0.0111126 -0.00460697 0)
(-0.0123619 -0.00456691 0)
(-0.0134729 -0.00437552 0)
(-0.0144052 -0.00402038 0)
(-0.015123 -0.00349508 0)
(-0.0155967 -0.00279973 0)
(-0.0158032 -0.0019409 0)
(-0.0157258 -0.000931712 0)
(-2.65284e-05 -0.000178053 0)
(-0.00036161 -0.000636438 0)
(-0.000956943 -0.00109015 0)
(-0.00176435 -0.001503 0)
(-0.00274054 -0.00187697 0)
(-0.00385406 -0.00221862 0)
(-0.00507539 -0.00252962 0)
(-0.0063744 -0.00280536 0)
(-0.00771882 -0.00303599 0)
(-0.00907362 -0.00320808 0)
(-0.0104012 -0.00330655 0)
(-0.0116624 -0.00331651 0)
(-0.0128178 -0.00322487 0)
(-0.0138298 -0.00302166 0)
(-0.0146641 -0.00270089 0)
(-0.0152913 -0.00226101 0)
(-0.0156878 -0.00170491 0)
(-0.0158364 -0.00104024 0)
(-1.33337e-05 -8.47823e-05 0)
(-0.000268582 -0.000380281 0)
(-0.000759059 -0.000686325 0)
(-0.00144471 -0.000964033 0)
(-0.00228811 -0.0012145 0)
(-0.00326077 -0.0014437 0)
(-0.00433704 -0.00165427 0)
(-0.00549177 -0.00184428 0)
(-0.0066985 -0.00200789 0)
(-0.00792838 -0.00213655 0)
(-0.00915003 -0.00222029 0)
(-0.0103302 -0.00224897 0)
(-0.0114347 -0.00221337 0)
(-0.0124304 -0.00210611 0)
(-0.0132861 -0.0019223 0)
(-0.0139742 -0.00165985 0)
(-0.0144719 -0.00131959 0)
(-0.0147625 -0.000905429 0)
(-7.10392e-07 -2.98302e-05 0)
(-0.000176909 -0.000208445 0)
(-0.000557489 -0.000400501 0)
(-0.00110861 -0.000573109 0)
(-0.00179803 -0.000727661 0)
(-0.00260068 -0.000869097 0)
(-0.0034953 -0.00100003 0)
(-0.00446202 -0.00111994 0)
(-0.00548034 -0.00122567 0)
(-0.00652783 -0.00131214 0)
(-0.00757977 -0.00137326 0)
(-0.00860944 -0.00140267 0)
(-0.009589 -0.00139441 0)
(-0.0104906 -0.00134353 0)
(-0.0112876 -0.0012465 0)
(-0.0119558 -0.00110145 0)
(-0.0124746 -0.000908227 0)
(-0.0128286 -0.000668476 0)
(9.51005e-06 -3.12331e-06 0)
(-9.77491e-05 -0.000101411 0)
(-0.000373866 -0.000209663 0)
(-0.000789583 -0.000305417 0)
(-0.00131774 -0.00039036 0)
(-0.00193745 -0.000468028 0)
(-0.00263217 -0.000540416 0)
(-0.00338727 -0.000607588 0)
(-0.00418794 -0.000667996 0)
(-0.00501792 -0.000718961 0)
(-0.00585899 -0.000757145 0)
(-0.00669111 -0.000778985 0)
(-0.00749298 -0.000781072 0)
(-0.00824289 -0.000760477 0)
(-0.00891965 -0.000714989 0)
(-0.00950354 -0.000643281 0)
(-0.00997718 -0.000544951 0)
(-0.0103278 -0.000420441 0)
(1.56078e-05 5.44981e-06 0)
(-3.8392e-05 -4.0703e-05 0)
(-0.000220852 -9.16898e-05 0)
(-0.000506931 -0.000135828 0)
(-0.000875288 -0.000174554 0)
(-0.0013101 -0.000209918 0)
(-0.00179975 -0.000243092 0)
(-0.00233448 -0.000274253 0)
(-0.00290464 -0.000302775 0)
(-0.00349953 -0.00032747 0)
(-0.004107 -0.000346817 0)
(-0.00471339 -0.000359158 0)
(-0.00530393 -0.000362876 0)
(-0.00586326 -0.000356545 0)
(-0.00637613 -0.000339041 0)
(-0.00682805 -0.000309626 0)
(-0.00720587 -0.000267972 0)
(-0.00749991 -0.000214018 0)
(1.58243e-05 4.91295e-06 0)
(-2.91674e-06 -1.1094e-05 0)
(-0.000104184 -2.80558e-05 0)
(-0.00026945 -4.23093e-05 0)
(-0.000484578 -5.46342e-05 0)
(-0.000739633 -6.58688e-05 0)
(-0.00102783 -7.64863e-05 0)
(-0.00134381 -8.65935e-05 0)
(-0.00168233 -9.60161e-05 0)
(-0.00203757 -0.000104385 0)
(-0.00240274 -0.000111214 0)
(-0.00277008 -0.000115961 0)
(-0.00313104 -0.000118089 0)
(-0.00347655 -0.000117111 0)
(-0.00379748 -0.000112632 0)
(-0.00408497 -0.00010437 0)
(-0.00433076 -9.2155e-05 0)
(-0.00452874 -7.58134e-05 0)
(8.48141e-06 1.73353e-06 0)
(7.20474e-06 -5.36097e-07 0)
(-2.46138e-05 -1.9442e-06 0)
(-7.88047e-05 -3.0501e-06 0)
(-0.000150028 -3.96591e-06 0)
(-0.000234756 -4.79781e-06 0)
(-0.000330778 -5.5985e-06 0)
(-0.000436455 -6.38429e-06 0)
(-0.000550223 -7.14584e-06 0)
(-0.00067031 -7.85675e-06 0)
(-0.000794603 -8.47954e-06 0)
(-0.000920619 -8.97146e-06 0)
(-0.00104556 -9.28816e-06 0)
(-0.0011664 -9.3882e-06 0)
(-0.00128003 -9.23602e-06 0)
(-0.00138341 -8.8084e-06 0)
(-0.00147356 -8.05982e-06 0)
(-0.00154825 -6.94092e-06 0)
(1.24855e-05 -2.90128e-05 7.39425e-24)
(8.71429e-05 -6.71341e-05 -9.78152e-24)
(0.000206775 -8.87633e-05 0)
(0.000351209 -9.70945e-05 0)
(0.000495994 -9.62405e-05 0)
(0.000623817 -8.91727e-05 8.26564e-24)
(0.000722732 -7.81635e-05 0)
(0.000784366 -6.49603e-05 0)
(0.000802997 -5.08144e-05 0)
(0.000775026 -3.65263e-05 0)
(0.000698387 -2.26162e-05 -1.14868e-24)
(0.000571944 -9.33348e-06 0)
(0.000395183 3.27206e-06 0)
(0.000167877 1.52808e-05 0)
(-0.000110161 2.68575e-05 0)
(-0.000439234 3.82186e-05 9.97246e-24)
(-0.000819845 4.96035e-05 0)
(-0.00125273 6.12496e-05 0)
(-0.00173881 7.33723e-05 0)
(-0.00227915 8.61497e-05 0)
(-0.00287483 9.97122e-05 0)
(-0.00352679 0.000114135 0)
(-0.00423568 0.000129431 0)
(-0.00500168 0.000145554 3.26256e-23)
(-0.00582431 0.000162391 -3.55373e-23)
(-0.00670227 0.000179767 3.83648e-23)
(-0.00763328 0.000197446 4.10625e-23)
(-0.00861389 0.000215132 0)
(-0.0096394 0.000232476 0)
(-0.0107037 0.00024908 -4.78446e-23)
(-0.0117994 0.000264502 -4.9468e-23)
(-0.0129174 0.000278265 0)
(-0.0140474 0.000289872 0)
(-0.0151777 0.000298817 -5.15049e-23)
(-0.0162951 0.0003046 0)
(-0.0173855 0.000306749 0)
(-0.0184341 0.000304837 4.79229e-23)
(-0.0194251 0.000298504 0)
(-0.0203426 0.000287478 4.16832e-23)
(-0.0211707 0.00027159 7.46049e-23)
(-0.0218937 0.000250796 0)
(-0.022497 0.000225186 0)
(-0.0229668 0.00019498 0)
(-0.0232908 0.000160538 0)
(-0.0234588 0.000122388 0)
(-0.0234622 8.12724e-05 -1.23725e-23)
(-0.0232947 3.76639e-05 -3.16806e-23)
(-0.0229531 -7.58884e-06 -5.18908e-23)
(-0.0224365 -5.35516e-05 0)
(-0.0217466 -9.93263e-05 9.40205e-23)
(-0.0208878 -0.000144044 0)
(-0.0198667 -0.000186882 -1.36575e-22)
(-0.0186924 -0.00022709 -1.57274e-22)
(-0.0173758 -0.000264021 0)
(-0.0159295 -0.000297147 0)
(-0.0143674 -0.000326073 0)
(-0.0127041 -0.000350539 -2.29374e-22)
(-0.0109551 -0.000370418 0)
(-0.00913589 -0.000385704 0)
(-0.0072619 -0.000396489 0)
(-0.0053483 -0.000402941 0)
(-0.0034098 -0.000405267 0)
(-0.0014607 -0.000403621 0)
(0.000485239 -0.000398016 0)
(0.00241502 -0.000388579 0)
(0.00431568 -0.000375673 2.6588e-22)
(0.00617418 -0.000359602 0)
(0.00797753 -0.0003405 0)
(0.00971251 -0.000318403 -2.29188e-22)
(0.0113654 -0.00029331 -2.12664e-22)
(0.0129221 -0.000265211 0)
(0.0143675 -0.000234124 1.74372e-22)
(0.0156862 -0.000200127 -1.53102e-22)
(0.0168625 -0.000163397 0)
(0.0178805 -0.000124236 1.07765e-22)
(0.0187251 -8.30985e-05 0)
(0.0193823 -4.05986e-05 0)
(0.0198397 2.48672e-06 -3.78171e-23)
(0.020088 4.51924e-05 0)
(0.0201211 8.63897e-05 -5.89658e-24)
(0.0199371 0.000125124 0)
(0.0195395 0.000160267 4.39899e-23)
(0.0189366 0.000190763 6.0202e-23)
(0.0181421 0.000215729 7.4238e-23)
(0.0171755 0.000234491 1.71927e-22)
(0.0160608 0.000246642 -1.90635e-22)
(0.0148267 0.000252084 0)
(0.0135046 0.000251041 0)
(0.0121279 0.000244039 0)
(0.0107301 0.000231864 -2.20681e-22)
(0.00934354 0.000215495 -2.1876e-22)
(0.00799784 0.000196019 2.14082e-22)
(0.00671875 0.000174546 0)
(0.00552724 0.000152125 -1.98756e-22)
(0.00443906 0.000129676 -1.8921e-22)
(0.00346457 0.000107953 -1.79067e-22)
(0.00260899 8.7535e-05 0)
(0.0018728 6.88456e-05 0)
(0.00125226 5.21918e-05 0)
(0.000739943 3.78023e-05 -1.39809e-22)
(0.000325339 2.58487e-05 0)
(-4.53192e-06 1.64422e-05 0)
(-0.000264331 9.60735e-06 1.17869e-22)
(-0.000469453 5.24133e-06 0)
(-0.000634948 3.09265e-06 0)
(-0.000774469 2.77468e-06 1.04488e-22)
(-0.000899392 3.8042e-06 0)
(-0.00101825 5.66059e-06 0)
(-0.00113652 7.85087e-06 -9.77622e-23)
(-0.00125682 9.96168e-06 -9.63611e-23)
(-0.00137937 1.16887e-05 0)
(-0.00150257 1.28428e-05 9.40303e-23)
(-0.00162366 1.33388e-05 0)
(-0.00173934 1.3174e-05 -9.16943e-23)
(-0.00184621 1.2404e-05 0)
(-0.00194115 1.11212e-05 -8.88983e-23)
(-0.00202156 9.43745e-06 -8.72716e-23)
(-0.0020855 7.47106e-06 0)
(-0.00213174 5.33724e-06 0)
(-0.00215977 3.13746e-06 0)
(-0.0021698 9.69415e-07 0)
(-0.00216257 -1.02593e-06 0)
(-0.00213938 -2.85552e-06 0)
(-0.00210198 -4.45736e-06 0)
(-0.00205235 -5.79004e-06 -7.08367e-23)
(-0.0019927 -6.83733e-06 6.87934e-23)
(-0.00192528 -7.59828e-06 0)
(-0.00185234 -8.08422e-06 0)
(-0.00177602 -8.31642e-06 0)
(-0.00169829 -8.32339e-06 0)
(-0.0016209 -8.13828e-06 1.2044e-22)
(-0.00154534 -7.79637e-06 0)
(-0.00147285 -7.33295e-06 -1.15314e-22)
(-0.00140441 -6.78165e-06 1.13094e-22)
(-0.00134072 -6.17318e-06 0)
(-0.00128228 -5.5345e-06 0)
(-0.00122935 -4.88838e-06 0)
(-0.00118204 -4.2533e-06 -1.05997e-22)
(-0.00114028 -3.64362e-06 -1.0455e-22)
(-0.00110392 -3.06989e-06 0)
(-0.00107268 -2.53928e-06 -1.01889e-22)
(-0.00104625 -2.05611e-06 -1.00636e-22)
(-0.00102424 -1.62233e-06 9.94117e-23)
(-0.00100626 -1.23803e-06 0)
(-0.00099191 -9.01895e-07 0)
(-0.000980782 -6.11565e-07 9.57786e-23)
(-0.000972486 -3.63976e-07 0)
(-0.000966648 -1.55593e-07 0)
(-0.00096292 1.74519e-08 0)
(-0.000960975 1.58964e-07 0)
(-0.000960514 2.68838e-07 -8.93461e-23)
(-0.000961277 3.39626e-07 -8.79621e-23)
(-0.000963029 3.9607e-07 0)
(-0.000965547 4.47998e-07 -8.50855e-23)
(-0.000968641 4.82587e-07 0)
(-0.000972159 5.0168e-07 0)
(-0.000975964 5.09485e-07 -8.05109e-23)
(-0.000979945 5.08888e-07 0)
(-0.000984015 5.02331e-07 -7.7306e-23)
(-0.000988107 4.92076e-07 0)
(-0.000992179 4.80242e-07 0)
(-0.000996207 4.68769e-07 -7.23049e-23)
(-0.00100019 4.59338e-07 0)
(-0.00100413 4.53203e-07 -6.88614e-23)
(-0.00100805 4.50969e-07 0)
(-0.00101197 4.52297e-07 0)
(-0.00101588 4.55592e-07 0)
(-0.00101977 4.57674e-07 6.17243e-23)
(-0.00102354 4.53369e-07 0)
(-0.00102706 4.34362e-07 -5.80022e-23)
(-0.00103006 3.90724e-07 0)
(-0.00103217 3.33456e-07 0)
(-0.00103283 2.40289e-07 0)
(-0.00103134 6.75765e-08 0)
(-0.00102673 -1.90438e-07 0)
(-0.00101772 -5.5983e-07 0)
(-0.00100235 -1.12508e-06 0)
(-0.000977146 -2.52268e-06 8.32005e-23)
(-0.000944442 -2.52789e-06 0)
(-0.000835774 -1.68761e-05 0)
(1.954e-05 -0.000169791 -2.47452e-23)
(0.000143756 -0.000389641 3.31003e-23)
(0.000318609 -0.000503822 0)
(0.00050827 -0.000529593 -2.19899e-23)
(0.000672632 -0.000485805 0)
(0.000781569 -0.000389954 -8.86997e-24)
(0.000812557 -0.000256935 1.73847e-23)
(0.000748471 -9.87943e-05 1.50105e-23)
(0.000576475 7.51569e-05 0)
(0.000287164 0.000258079 9.16141e-24)
(-0.000126215 0.000445153 1.23795e-24)
(-0.000668395 0.000633283 0)
(-0.00134278 0.000820722 0)
(-0.00215191 0.00100673 0)
(-0.00309784 0.00119127 0)
(-0.00418236 0.00137473 -1.07001e-23)
(-0.00540711 0.00155768 0)
(-0.0067736 0.00174068 2.58613e-23)
(-0.00828309 0.00192409 0)
(-0.00993642 0.00210791 0)
(-0.0117337 0.00229172 -4.25927e-23)
(-0.013674 0.00247458 0)
(-0.015755 0.00265499 5.43373e-23)
(-0.0179726 0.0028309 -3.45967e-23)
(-0.0203205 0.00299972 3.76063e-23)
(-0.02279 0.0031584 -4.05105e-23)
(-0.0253693 0.00330345 -4.32623e-23)
(-0.028044 0.00343108 0)
(-0.0307962 0.00353729 0)
(-0.0336049 0.00361797 5.00628e-23)
(-0.0364458 0.00366907 -4.3517e-23)
(-0.0392917 0.00368668 0)
(-0.0421126 0.00366723 0)
(-0.0448762 0.00360763 5.3445e-23)
(-0.0475482 0.00350535 0)
(-0.050093 0.00335864 0)
(-0.0524746 0.00316656 -4.95083e-23)
(-0.0546568 0.00292913 0)
(-0.0566043 0.00264738 4.13556e-23)
(-0.0582835 0.00232335 -7.69278e-23)
(-0.059663 0.00196013 0)
(-0.0607145 0.00156178 0)
(-0.0614134 0.00113327 -8.38565e-23)
(-0.0617394 0.000680291 -5.41119e-23)
(-0.0616765 0.000209257 -2.11799e-23)
(-0.0612144 -0.000272878 -1.83257e-24)
(-0.0603479 -0.00075906 3.28738e-23)
(-0.0590768 -0.00124192 1.47498e-22)
(-0.0574067 -0.00171426 -1.35786e-22)
(-0.0553479 -0.00216929 -9.8213e-23)
(-0.0529157 -0.00260078 0)
(-0.0501295 -0.0030032 1.43561e-22)
(-0.0470126 -0.00337188 -1.45353e-22)
(-0.0435913 -0.00370308 0)
(-0.0398947 -0.00399408 0)
(-0.0359533 -0.00424315 0)
(-0.0317991 -0.00444955 2.46277e-22)
(-0.0274645 -0.00461341 0)
(-0.0229819 -0.00473562 -5.2956e-22)
(-0.0183832 -0.0048177 0)
(-0.0136994 -0.00486154 -5.72383e-22)
(-0.00896051 -0.00486922 0)
(-0.0041954 -0.00484271 5.94395e-22)
(0.000567646 -0.00478367 0)
(0.00530179 -0.00469352 -5.8275e-22)
(0.00998022 -0.00457356 2.70285e-22)
(0.0145758 -0.00442481 0)
(0.0190612 -0.0042476 5.1268e-22)
(0.0234082 -0.00404172 2.50799e-22)
(0.0275871 -0.00380655 2.31971e-22)
(0.0315666 -0.00354131 0)
(0.035313 -0.00324528 1.70361e-22)
(0.0387909 -0.00291807 1.65683e-22)
(0.041963 -0.00255992 0)
(0.0447911 -0.00217198 -1.16203e-22)
(0.0472362 -0.00175659 1.68036e-22)
(0.0492607 -0.0013175 0)
(0.050829 -0.000859976 4.06853e-23)
(0.0519096 -0.000390955 0)
(0.052477 8.10263e-05 2.57503e-23)
(0.0525137 0.00054654 0)
(0.0520125 0.000994757 -1.44752e-22)
(0.0509775 0.00141457 -6.49421e-23)
(0.049426 0.00179502 7.8391e-23)
(0.0473889 0.00212584 1.78215e-22)
(0.0449112 0.00239821 -1.94902e-22)
(0.0420511 0.00260537 0)
(0.0388782 0.00274325 0)
(0.0354714 0.00281076 0)
(0.031915 0.00280997 7.05197e-22)
(0.0282951 0.00274594 2.42115e-22)
(0.0246958 0.00262633 -2.38012e-22)
(0.0211947 0.00246077 0)
(0.0178599 0.00226007 -1.96988e-22)
(0.0147472 0.00203543 2.13186e-22)
(0.0118988 0.00179772 2.02587e-22)
(0.00934238 0.00155695 0)
(0.00709148 0.00132197 0)
(0.00514642 0.00110031 0)
(0.00349564 0.000898212 1.60314e-22)
(0.00211733 0.000720544 0)
(0.000981517 0.000570668 -2.75979e-22)
(5.24777e-05 0.00045024 -3.99552e-22)
(-0.000708494 0.000359007 2.5259e-22)
(-0.00134008 0.000294793 0)
(-0.00187804 0.000253774 1.15458e-22)
(-0.00235288 0.000230975 0)
(-0.00278828 0.000220896 2.25999e-22)
(-0.00320052 0.000218189 -1.09407e-22)
(-0.00359869 0.000218197 -1.08158e-22)
(-0.00398579 0.000217296 0)
(-0.00436005 0.000213018 -3.23857e-22)
(-0.00471654 0.000203993 2.12735e-22)
(-0.00504861 0.000189774 1.06252e-22)
(-0.00534913 0.000170618 0)
(-0.00561142 0.00014726 1.03113e-22)
(-0.00582992 0.000120727 3.02644e-22)
(-0.00600062 9.21741e-05 0)
(-0.00612119 6.27777e-05 1.93696e-22)
(-0.00619108 3.36453e-05 1.89431e-22)
(-0.00621138 5.77002e-06 1.84948e-22)
(-0.0061847 -1.99551e-05 0)
(-0.00611491 -4.29528e-05 0)
(-0.00600685 -6.2743e-05 0)
(-0.00586604 -7.90387e-05 -8.35475e-23)
(-0.00569847 -9.17337e-05 -8.03645e-23)
(-0.00551023 -0.000100878 0)
(-0.00530734 -0.000106652 -1.53246e-22)
(-0.0050955 -0.000109338 -1.4937e-22)
(-0.00487995 -0.000109294 0)
(-0.00466537 -0.00010692 -1.41318e-22)
(-0.00445575 -0.000102638 -2.78697e-22)
(-0.00425441 -9.68671e-05 1.35543e-22)
(-0.00406395 -9.00039e-05 1.34905e-22)
(-0.00388633 -8.24129e-05 0)
(-0.00372289 -7.44155e-05 0)
(-0.00357439 -6.62859e-05 0)
(-0.00344115 -5.82493e-05 1.25114e-22)
(-0.00332307 -5.04839e-05 -1.24578e-22)
(-0.00321973 -4.31237e-05 -2.44906e-22)
(-0.00313048 -3.62631e-05 1.20547e-22)
(-0.00305445 -2.99627e-05 -1.19816e-22)
(-0.00299068 -2.42546e-05 -1.1779e-22)
(-0.00293811 -1.91479e-05 0)
(-0.00289567 -1.46338e-05 0)
(-0.00286226 -1.06899e-05 1.13998e-22)
(-0.00283684 -7.28463e-06 0)
(-0.00281839 -4.37987e-06 0)
(-0.00280595 -1.93386e-06 -2.19041e-22)
(-0.00279864 9.64392e-08 0)
(-0.00279563 1.75027e-06 -1.06458e-22)
(-0.00279618 3.05903e-06 1.04873e-22)
(-0.00279962 4.08224e-06 0)
(-0.00280536 4.87515e-06 -1.01511e-22)
(-0.00281288 5.45116e-06 0)
(-0.00282172 5.84432e-06 0)
(-0.0028315 6.08833e-06 9.63041e-23)
(-0.00284189 6.21412e-06 -1.88829e-22)
(-0.00285265 6.25052e-06 9.25909e-23)
(-0.00286357 6.22444e-06 0)
(-0.00287452 6.16062e-06 0)
(-0.00288541 6.08093e-06 -8.66644e-23)
(-0.00289621 6.00305e-06 0)
(-0.00290691 5.93861e-06 -8.2642e-23)
(-0.00291753 5.89059e-06 0)
(-0.00292808 5.85026e-06 0)
(-0.0029385 5.79386e-06 0)
(-0.00294867 5.6794e-06 -7.43627e-23)
(-0.00295832 5.44387e-06 0)
(-0.00296696 5.00065e-06 6.99699e-23)
(-0.00297383 4.23971e-06 0)
(-0.00297781 3.06125e-06 0)
(-0.00297739 1.29109e-06 -1.26072e-22)
(-0.00297053 -1.29033e-06 1.21274e-22)
(-0.00295457 -4.91103e-06 0)
(-0.00292605 -9.93962e-06 0)
(-0.00288007 -1.71171e-05 0)
(-0.00280904 -2.82153e-05 -3.03717e-22)
(-0.00271485 -4.58392e-05 0)
(-0.00249453 -8.90544e-05 1.81504e-22)
(1.63398e-05 -0.000321896 -3.41965e-24)
(0.000105885 -0.000695531 -4.93959e-23)
(0.000204254 -0.000845025 0)
(0.00027184 -0.000814203 4.75126e-23)
(0.000267566 -0.000641893 0)
(0.000159922 -0.000361705 0)
(-7.55596e-05 -1.89342e-06 3.35316e-24)
(-0.00045831 0.000414489 -1.50104e-23)
(-0.0010038 0.000869217 -1.58913e-23)
(-0.00172422 0.00134837 -9.12893e-24)
(-0.00262912 0.00184182 0)
(-0.003726 0.00234254 0)
(-0.00502078 0.002846 2.84183e-24)
(-0.0065182 0.00334953 -2.08638e-24)
(-0.00822202 0.00385178 1.03298e-23)
(-0.0101352 0.00435214 0)
(-0.0122596 0.00485026 2.82071e-23)
(-0.0145966 0.00534562 -2.54339e-23)
(-0.0171457 0.00583715 0)
(-0.0199054 0.00632294 5.83141e-23)
(-0.022872 0.0068 4.16248e-23)
(-0.0260393 0.00726418 -8.02493e-23)
(-0.0293983 0.00771008 -5.28609e-23)
(-0.0329368 0.0081311 0)
(-0.0366387 0.00851956 1.14681e-22)
(-0.040484 0.00886688 1.26142e-22)
(-0.0444483 0.00916383 0)
(-0.0485031 0.0094008 1.48135e-22)
(-0.0526155 0.00956812 0)
(-0.0567486 0.00965644 1.67583e-22)
(-0.0608618 0.00965702 9.09961e-23)
(-0.0649114 0.00956215 0)
(-0.0688515 0.00936543 0)
(-0.0726341 0.0090621 0)
(-0.0762107 0.0086493 0)
(-0.079533 0.00812628 0)
(-0.0825536 0.00749456 0)
(-0.0852273 0.00675795 1.80295e-22)
(-0.087512 0.00592261 -2.50482e-22)
(-0.0893691 0.00499688 0)
(-0.0907649 0.00399121 0)
(-0.091671 0.00291784 0)
(-0.0920644 0.00179048 -1.67903e-23)
(-0.0919286 0.000624078 5.16581e-23)
(-0.091253 -0.000565474 5.96722e-23)
(-0.0900347 -0.00176181 7.80465e-24)
(-0.0882762 -0.0029485 2.96947e-23)
(-0.0859864 -0.00410973 -8.9471e-23)
(-0.08318 -0.00523057 2.21675e-23)
(-0.0798773 -0.00629727 -1.49182e-22)
(-0.0761032 -0.0072976 0)
(-0.0718871 -0.00822112 -2.33952e-22)
(-0.0672619 -0.00905934 2.34164e-23)
(-0.0622631 -0.00980587 0)
(-0.0569288 -0.0104564 0)
(-0.051298 -0.0110089 3.95737e-22)
(-0.0454104 -0.0114629 0)
(-0.0393059 -0.0118201 0)
(-0.0330236 -0.0120832 -4.67771e-22)
(-0.0266014 -0.0122565 -1.03325e-21)
(-0.0200762 -0.0123445 5.61196e-22)
(-0.013483 -0.0123522 0)
(-0.00685543 -0.0122845 -5.86173e-22)
(-0.000226369 -0.0121454 0)
(0.00637312 -0.0119382 -5.27487e-22)
(0.0129124 -0.0116652 -5.566e-22)
(0.0193595 -0.0113275 1.01747e-21)
(0.0256822 -0.0109251 4.57478e-22)
(0.0318467 -0.0104569 0)
(0.037817 -0.00992063 -8.22312e-22)
(0.0435541 -0.00931358 0)
(0.049016 -0.00863291 -1.00813e-21)
(0.0541569 -0.00787627 -5.69752e-22)
(0.0589277 -0.00704246 -4.77846e-22)
(0.0632764 -0.00613206 3.8414e-22)
(0.0671487 -0.00514811 -4.52341e-22)
(0.0704894 -0.00409666 0)
(0.0732437 -0.00298728 0)
(0.0753597 -0.00183338 1.84115e-23)
(0.0767903 -0.000652263 -8.2598e-23)
(0.0774963 0.000534865 0)
(0.0774483 0.00170346 9.36939e-23)
(0.0766318 0.0028267 0)
(0.0750483 0.00387663 -4.6992e-22)