/*--------------------------------*- C++ -*----------------------------------*\
  =========                 |
  \\      /  F ield         | OpenFOAM: The Open Source CFD Toolbox
   \\    /   O peration     | Website:  https://openfoam.org
    \\  /    A nd           | Version:  8
     \\/     M anipulation  |
\*---------------------------------------------------------------------------*/
FoamFile
{
    version     2.0;
    format      ascii;
    class       volScalarField;
    location    "0.36";
    object      p;
}
// * * * * * * * * * * * * * * * * * * * * * * * * * * * * * * * * * * * * * //

dimensions      [0 2 -2 0 0 0 0];

internalField   nonuniform List<scalar> 
12225
(
-0.0208428
-0.0208649
-0.0209409
-0.0210509
-0.0211802
-0.0213239
-0.0214849
-0.0216761
-0.0219234
-0.0222664
-0.0227559
-0.023445
-0.0243788
-0.0255904
-0.0271122
-0.0290261
-0.0316583
-0.036968
-0.0208493
-0.0208696
-0.0209434
-0.0210524
-0.0211841
-0.0213345
-0.0215074
-0.021716
-0.0219857
-0.0223541
-0.0228685
-0.0235769
-0.0245194
-0.025723
-0.0272095
-0.0290329
-0.031343
-0.0351608
-0.020855
-0.0208734
-0.0209445
-0.0210527
-0.0211872
-0.0213456
-0.0215324
-0.0217609
-0.0220555
-0.0224518
-0.0229926
-0.0237206
-0.0246691
-0.0258569
-0.0272903
-0.0289828
-0.0309101
-0.0335411
-0.0208574
-0.0208741
-0.0209428
-0.0210503
-0.0211878
-0.0213538
-0.0215533
-0.0217996
-0.0221158
-0.0225351
-0.0230964
-0.0238376
-0.0247859
-0.0259504
-0.0273193
-0.0288672
-0.0304831
-0.0323712
-0.020856
-0.0208712
-0.0209375
-0.0210446
-0.021185
-0.0213581
-0.0215691
-0.0218307
-0.0221649
-0.0226023
-0.0231787
-0.0239277
-0.0248707
-0.0260078
-0.02731
-0.0287214
-0.0301033
-0.031528
-0.0208502
-0.0208639
-0.020928
-0.0210347
-0.0211778
-0.0213574
-0.0215787
-0.0218536
-0.0222026
-0.022654
-0.023241
-0.0239939
-0.024929
-0.0260381
-0.0272787
-0.0285743
-0.0297849
-0.0309168
-0.0208391
-0.0208513
-0.0209131
-0.0210194
-0.0211648
-0.0213502
-0.0215803
-0.0218663
-0.022227
-0.0226888
-0.0232827
-0.0240362
-0.0249621
-0.0260456
-0.0272343
-0.0284401
-0.029533
-0.0304887
-0.0208221
-0.0208324
-0.0208917
-0.0209972
-0.0211445
-0.0213345
-0.0215718
-0.0218664
-0.0222357
-0.0227043
-0.0233014
-0.0240527
-0.0249686
-0.0260297
-0.0271779
-0.0283199
-0.0293388
-0.0301975
-0.0207982
-0.0208059
-0.0208623
-0.0209665
-0.0211147
-0.021308
-0.0215505
-0.0218512
-0.0222258
-0.0226973
-0.0232937
-0.0240397
-0.024944
-0.0259851
-0.0271021
-0.0282014
-0.0291782
-0.0299886
-0.020766
-0.0207704
-0.0208231
-0.0209252
-0.0210731
-0.0212679
-0.0215132
-0.0218167
-0.0221927
-0.0226629
-0.0232538
-0.0239898
-0.024879
-0.0258992
-0.02699
-0.0280597
-0.029013
-0.0298009
-0.0207244
-0.0207243
-0.0207725
-0.0208713
-0.0210172
-0.0212113
-0.0214563
-0.0217588
-0.0221317
-0.0225949
-0.0231742
-0.0238932
-0.0247605
-0.0257548
-0.0268177
-0.0278613
-0.0287966
-0.0295703
-0.0206761
-0.0206708
-0.0207138
-0.0208083
-0.0209505
-0.0211411
-0.0213823
-0.0216797
-0.0220447
-0.0224958
-0.0230574
-0.0237524
-0.0245899
-0.0255504
-0.0265788
-0.0275916
-0.0285039
-0.0292588
-0.0206168
-0.0206061
-0.0206428
-0.0207314
-0.0208677
-0.0210518
-0.0212856
-0.0215735
-0.0219255
-0.0223585
-0.0228951
-0.0235572
-0.0243538
-0.0252678
-0.0262485
-0.0272178
-0.028095
-0.0288204
-0.0205321
-0.0205152
-0.0205433
-0.0206229
-0.0207489
-0.0209211
-0.0211403
-0.0214101
-0.0217387
-0.0221409
-0.0226366
-0.0232458
-0.0239774
-0.024817
-0.0257201
-0.0266165
-0.027431
-0.0281044
-0.0204101
-0.0203866
-0.0204039
-0.02047
-0.0205794
-0.0207308
-0.0209244
-0.0211625
-0.0214515
-0.0218031
-0.0222339
-0.0227605
-0.0233909
-0.0241145
-0.0248942
-0.0256706
-0.0263764
-0.0269561
-0.0202334
-0.0202046
-0.0202094
-0.0202566
-0.0203405
-0.0204588
-0.0206111
-0.0207984
-0.0210247
-0.0212981
-0.0216308
-0.0220347
-0.0225161
-0.0230677
-0.0236618
-0.0242526
-0.0247848
-0.0252091
-0.0199802
-0.0199493
-0.0199412
-0.0199638
-0.0200116
-0.020082
-0.0201738
-0.0202866
-0.0204218
-0.0205837
-0.0207788
-0.0210138
-0.0212922
-0.0216089
-0.0219464
-0.0222747
-0.0225549
-0.0227481
-0.0196294
-0.019601
-0.0195809
-0.0195738
-0.0195756
-0.0195836
-0.019596
-0.019611
-0.0196277
-0.0196463
-0.0196684
-0.0196956
-0.0197282
-0.0197629
-0.0197904
-0.0197962
-0.0197594
-0.019656
-0.0191752
-0.0191534
-0.0191225
-0.0190828
-0.0190319
-0.0189678
-0.0188882
-0.0187909
-0.0186731
-0.0185325
-0.0183668
-0.018174
-0.0179517
-0.017697
-0.0174066
-0.0170758
-0.0166988
-0.0162675
-0.0187628
-0.0187493
-0.0187118
-0.0186464
-0.0185529
-0.0184306
-0.0182781
-0.0180939
-0.0178758
-0.0176217
-0.017329
-0.0169957
-0.0166184
-0.016195
-0.0157228
-0.0152004
-0.0146279
-0.0140065
-0.0184688
-0.0184662
-0.0184279
-0.0183472
-0.0182266
-0.0180663
-0.017866
-0.0176248
-0.0173414
-0.0170144
-0.0166423
-0.0162232
-0.0157556
-0.0152381
-0.0146704
-0.0140535
-0.0133901
-0.0126853
-0.0182507
-0.0182606
-0.0182242
-0.018133
-0.0179926
-0.0178044
-0.0175688
-0.0172855
-0.0169542
-0.0165745
-0.0161456
-0.0156669
-0.0151381
-0.0145594
-0.013932
-0.0132585
-0.0125429
-0.0117915
-0.0181022
-0.0181241
-0.0180897
-0.017991
-0.0178359
-0.0176267
-0.0173644
-0.0170494
-0.0166821
-0.0162627
-0.0157912
-0.0152683
-0.0146947
-0.014072
-0.0134028
-0.012691
-0.0119416
-0.0111613
-0.0180139
-0.0180451
-0.0180121
-0.0179078
-0.0177419
-0.0175171
-0.0172347
-0.0168958
-0.016501
-0.0160512
-0.0155472
-0.0149903
-0.0143822
-0.0137258
-0.0130246
-0.0122836
-0.011509
-0.0107077
-0.0179727
-0.0180101
-0.0179779
-0.0178702
-0.0176969
-0.0174607
-0.0171634
-0.0168066
-0.0163913
-0.0159186
-0.0153897
-0.0148065
-0.0141715
-0.0134883
-0.0127614
-0.0119968
-0.0112012
-0.0103822
-0.0179643
-0.0180057
-0.0179746
-0.0178658
-0.0176877
-0.0174436
-0.0171358
-0.0167661
-0.0163357
-0.015846
-0.0152984
-0.0146951
-0.0140392
-0.0133346
-0.0125867
-0.0118018
-0.0109877
-0.0101523
-0.0179752
-0.0180206
-0.0179922
-0.0178841
-0.0177035
-0.0174542
-0.0171391
-0.0167604
-0.0163194
-0.0158174
-0.0152562
-0.0146378
-0.0139656
-0.013244
-0.0124784
-0.0116759
-0.0108446
-0.00999323
-0.0179952
-0.0180469
-0.0180237
-0.017918
-0.0177365
-0.0174839
-0.0171641
-0.0167793
-0.016331
-0.0158206
-0.0152495
-0.0146199
-0.0139351
-0.0131995
-0.0124189
-0.0116005
-0.0107527
-0.00988495
-0.0180163
-0.018079
-0.018064
-0.0179617
-0.0177803
-0.0175259
-0.0172032
-0.0168146
-0.0163617
-0.0158456
-0.0152676
-0.0146298
-0.0139352
-0.0131882
-0.0123946
-0.0115614
-0.0106974
-0.00981247
-0.0180317
-0.0181071
-0.0181001
-0.018001
-0.01782
-0.0175648
-0.0172405
-0.01685
-0.0163946
-0.0158753
-0.0152932
-0.0146502
-0.013949
-0.013194
-0.0123908
-0.0115464
-0.0106695
-0.00977033
-0.0419515
-0.0418987
-0.041826
-0.0417603
-0.04172
-0.0417163
-0.0417552
-0.0418385
-0.041964
-0.0421266
-0.0423198
-0.0425362
-0.0427697
-0.0430158
-0.0432727
-0.0435415
-0.0438261
-0.0441332
-0.0444713
-0.0448503
-0.04528
-0.0457698
-0.0463272
-0.0469582
-0.0476659
-0.0484506
-0.0493099
-0.0502376
-0.0512243
-0.0522562
-0.0533153
-0.0543784
-0.0554172
-0.0563982
-0.057283
-0.0580287
-0.058589
-0.0589156
-0.0589596
-0.0586734
-0.0580127
-0.0569388
-0.0554202
-0.0534343
-0.0509694
-0.0480253
-0.0446141
-0.0407604
-0.0365012
-0.0318859
-0.0269743
-0.0218237
-0.01652
-0.011142
-0.00577282
-0.000497058
0.00460239
0.00944646
0.0139619
0.0180831
0.0217535
0.0249269
0.0275682
0.0296541
0.031173
0.0321251
0.0325219
0.0323851
0.0317461
0.0306445
0.0291267
0.0272447
0.025052
0.0226086
0.0199709
0.0171963
0.0143399
0.0114532
0.00858275
0.00576951
0.00304857
0.000448811
-0.00200727
-0.00430335
-0.00642888
-0.00837841
-0.0101512
-0.0117507
-0.0131836
-0.0144594
-0.0155892
-0.0165858
-0.0174621
-0.0182314
-0.0189064
-0.0194991
-0.0200201
-0.0204791
-0.0208839
-0.0212413
-0.0215563
-0.021833
-0.0220741
-0.0222814
-0.0224559
-0.0225984
-0.0227089
-0.0227878
-0.0228352
-0.0228515
-0.0228372
-0.0227931
-0.0227205
-0.0226207
-0.0224954
-0.0223467
-0.0221766
-0.0219874
-0.0217814
-0.021561
-0.0213285
-0.0210862
-0.0208362
-0.0205805
-0.0203209
-0.0200591
-0.0197966
-0.0195345
-0.019274
-0.019016
-0.0187614
-0.0185106
-0.0182641
-0.0180222
-0.0177852
-0.0175531
-0.017326
-0.0171039
-0.0168866
-0.0166739
-0.0164657
-0.0162618
-0.0160618
-0.0158656
-0.0156729
-0.0154834
-0.0152968
-0.0151128
-0.0149311
-0.0147514
-0.0145735
-0.014397
-0.0142218
-0.0140475
-0.0138739
-0.0137009
-0.013528
-0.0133553
-0.0131824
-0.0130092
-0.0128355
-0.0126612
-0.012486
-0.0123097
-0.0121323
-0.0119535
-0.011773
-0.0115906
-0.0114061
-0.0112188
-0.011028
-0.0108323
-0.0106296
-0.0104162
-0.0101869
-0.00993536
-0.00965665
-0.00935708
-0.0090301
-0.00860197
-0.0421673
-0.0420805
-0.0419901
-0.0419239
-0.0418881
-0.0418861
-0.0419206
-0.0419912
-0.042095
-0.0422271
-0.0423812
-0.0425513
-0.0427324
-0.0429216
-0.0431182
-0.0433244
-0.0435446
-0.0437858
-0.0440563
-0.0443655
-0.0447224
-0.0451359
-0.0456132
-0.0461599
-0.0467796
-0.0474739
-0.048242
-0.0490806
-0.0499832
-0.0509396
-0.0519357
-0.0529522
-0.0539649
-0.0549436
-0.0558528
-0.0566514
-0.0572937
-0.0577308
-0.0579114
-0.0577843
-0.0573008
-0.0564163
-0.0550933
-0.0533035
-0.0510294
-0.0482659
-0.0450216
-0.0413194
-0.037195
-0.032692
-0.027863
-0.0227884
-0.0175375
-0.0121954
-0.00684917
-0.00158565
0.00351013
0.00835726
0.012881
0.0170144
0.0207
0.0238909
0.0265516
0.0286584
0.0301997
0.0311758
0.0315982
0.0314889
0.0308797
0.0298103
0.0283275
0.0264834
0.0243333
0.0219311
0.01934
0.0166154
0.0138125
0.0109822
0.00817013
0.00541642
0.00275522
0.000214397
-0.00218442
-0.00442573
-0.00649985
-0.00840208
-0.0101322
-0.0116941
-0.0130945
-0.0143428
-0.0154504
-0.0164293
-0.0172924
-0.0180525
-0.0187218
-0.0193117
-0.0198325
-0.0202934
-0.0207018
-0.0210641
-0.0213851
-0.0216686
-0.0219171
-0.0221322
-0.022315
-0.0224658
-0.022585
-0.0226725
-0.0227284
-0.0227532
-0.0227472
-0.0227112
-0.0226464
-0.0225541
-0.022436
-0.0222939
-0.0221301
-0.0219468
-0.0217462
-0.0215308
-0.0213029
-0.0210647
-0.0208184
-0.020566
-0.0203093
-0.0200501
-0.0197898
-0.0195298
-0.019271
-0.0190145
-0.0187611
-0.0185113
-0.0182656
-0.0180244
-0.0177879
-0.0175562
-0.0173294
-0.0171074
-0.0168902
-0.0166776
-0.0164694
-0.0162654
-0.0160653
-0.015869
-0.0156761
-0.0154864
-0.0152997
-0.0151155
-0.0149336
-0.0147537
-0.0145756
-0.014399
-0.0142236
-0.0140491
-0.0138754
-0.0137022
-0.0135293
-0.0133564
-0.0131834
-0.0130101
-0.0128363
-0.0126619
-0.0124866
-0.0123103
-0.0121328
-0.0119539
-0.0117734
-0.011591
-0.0114063
-0.0112189
-0.0110279
-0.0108319
-0.0106288
-0.0104152
-0.0101869
-0.00993796
-0.00966497
-0.00937634
-0.0090623
-0.0086586
-0.0423028
-0.0421854
-0.0420712
-0.0419969
-0.0419626
-0.0419656
-0.0420042
-0.0420754
-0.0421734
-0.0422911
-0.0424209
-0.0425559
-0.0426912
-0.0428245
-0.0429563
-0.0430904
-0.0432335
-0.0433942
-0.0435829
-0.0438102
-0.0440868
-0.0444228
-0.044827
-0.045307
-0.0458693
-0.0465186
-0.0472584
-0.04809
-0.0490118
-0.0500186
-0.0511001
-0.05224
-0.0534147
-0.054593
-0.0557355
-0.0567953
-0.0577186
-0.0584468
-0.0589187
-0.0590729
-0.0588509
-0.0582003
-0.0570771
-0.0554487
-0.0532955
-0.0506131
-0.0474131
-0.0437196
-0.039565
-0.0349969
-0.030086
-0.0249123
-0.0195568
-0.0141066
-0.00865155
-0.00328137
0.00191651
0.00685939
0.0114712
0.0156843
0.0194408
0.022694
0.0254087
0.0275618
0.0291427
0.0301526
0.030604
0.0305204
0.0299344
0.0288872
0.0274265
0.0256056
0.0234809
0.0211088
0.0185487
0.0158594
0.0130964
0.0103104
0.00754664
0.00484502
0.00223902
-0.000244232
-0.00258401
-0.0047657
-0.00678051
-0.00862483
-0.0102995
-0.0118091
-0.0131614
-0.0143664
-0.0154355
-0.0163812
-0.0172164
-0.0179535
-0.0186047
-0.0191811
-0.0196924
-0.0201474
-0.0205531
-0.0209153
-0.0212384
-0.0215257
-0.0217795
-0.022001
-0.0221908
-0.0223493
-0.0224764
-0.022572
-0.0226361
-0.0226688
-0.0226704
-0.0226418
-0.0225839
-0.0224981
-0.022386
-0.0222496
-0.022091
-0.0219124
-0.0217162
-0.0215048
-0.0212804
-0.0210454
-0.0208021
-0.0205523
-0.020298
-0.0200408
-0.0197824
-0.0195239
-0.0192666
-0.0190113
-0.018759
-0.0185101
-0.0182652
-0.0180246
-0.0177886
-0.0175574
-0.0173309
-0.0171092
-0.0168922
-0.0166797
-0.0164716
-0.0162676
-0.0160676
-0.0158712
-0.0156783
-0.0154885
-0.0153016
-0.0151174
-0.0149354
-0.0147554
-0.0145772
-0.0144005
-0.014225
-0.0140504
-0.0138766
-0.0137033
-0.0135302
-0.0133573
-0.0131842
-0.0130108
-0.012837
-0.0126625
-0.0124871
-0.0123108
-0.0121333
-0.0119544
-0.0117738
-0.0115914
-0.0114067
-0.0112192
-0.0110282
-0.0108322
-0.0106293
-0.0104165
-0.01019
-0.00994499
-0.00967911
-0.00940215
-0.00910448
-0.00872675
-0.0422668
-0.0421364
-0.0420139
-0.0419421
-0.0419193
-0.0419392
-0.0419969
-0.0420857
-0.0421961
-0.0423176
-0.0424399
-0.0425545
-0.0426559
-0.0427421
-0.0428157
-0.0428831
-0.0429544
-0.0430421
-0.0431605
-0.0433248
-0.0435503
-0.0438518
-0.0442437
-0.0447393
-0.0453516
-0.0460923
-0.0469715
-0.0479961
-0.0491686
-0.050485
-0.0519327
-0.0534894
-0.0551216
-0.0567846
-0.0584229
-0.0599721
-0.0613607
-0.0625137
-0.0633555
-0.0638139
-0.0638234
-0.063328
-0.0622842
-0.0606627
-0.058451
-0.0556531
-0.0522858
-0.048375
-0.0439686
-0.0391392
-0.0339615
-0.0285166
-0.0228925
-0.0171814
-0.0114771
-0.00587247
-0.000457251
0.00468432
0.00947536
0.013848
0.0177448
0.0211196
0.0239384
0.0261795
0.0278337
0.028904
0.0294047
0.029361
0.0288075
0.0277871
0.0263495
0.0245493
0.0224444
0.0200939
0.0175578
0.0148956
0.0121631
0.00941159
0.00668701
0.0040292
0.00147161
-0.000959004
-0.0032425
-0.00536503
-0.00731876
-0.00910075
-0.010713
-0.0121614
-0.0134547
-0.0146038
-0.015621
-0.0165194
-0.0173123
-0.0180126
-0.0186324
-0.0191826
-0.0196729
-0.0201116
-0.0205053
-0.0208594
-0.0211776
-0.0214628
-0.0217166
-0.0219399
-0.0221329
-0.0222953
-0.0224268
-0.022527
-0.0225956
-0.0226327
-0.0226384
-0.0226135
-0.022559
-0.0224761
-0.0223665
-0.0222323
-0.0220755
-0.0218985
-0.0217036
-0.0214932
-0.0212699
-0.0210358
-0.0207932
-0.0205441
-0.0202905
-0.020034
-0.0197762
-0.0195183
-0.0192615
-0.0190068
-0.0187549
-0.0185065
-0.0182621
-0.0180219
-0.0177863
-0.0175554
-0.0173293
-0.0171079
-0.0168911
-0.0166788
-0.0164709
-0.0162671
-0.0160672
-0.015871
-0.0156782
-0.0154885
-0.0153017
-0.0151175
-0.0149355
-0.0147556
-0.0145774
-0.0144007
-0.0142252
-0.0140507
-0.0138768
-0.0137035
-0.0135305
-0.0133575
-0.0131845
-0.0130111
-0.0128373
-0.0126628
-0.0124874
-0.0123111
-0.0121336
-0.0119548
-0.0117743
-0.0115919
-0.0114073
-0.01122
-0.0110291
-0.0108336
-0.0106315
-0.0104204
-0.0101971
-0.00995743
-0.00969981
-0.0094327
-0.00914777
-0.0088047
-0.0420241
-0.041902
-0.0417946
-0.0417457
-0.0417525
-0.0418068
-0.0419004
-0.0420226
-0.0421606
-0.0423003
-0.0424291
-0.0425374
-0.0426197
-0.0426762
-0.0427122
-0.0427381
-0.0427692
-0.042824
-0.0429237
-0.0430909
-0.043349
-0.0437218
-0.0442328
-0.0449053
-0.0457608
-0.0468184
-0.0480925
-0.0495902
-0.0513093
-0.0532353
-0.0553402
-0.0575815
-0.0599023
-0.0622336
-0.0644958
-0.066603
-0.0684665
-0.0699987
-0.071117
-0.0717473
-0.0718266
-0.0713056
-0.07015
-0.0683423
-0.0658816
-0.06278
-0.0590629
-0.0547778
-0.0499938
-0.0447809
-0.0392189
-0.0333958
-0.0274052
-0.021344
-0.0153096
-0.00939757
-0.00369946
0.00169953
0.00672229
0.0113013
0.01538
0.0189136
0.0218696
0.0242283
0.0259825
0.0271372
0.027709
0.0277252
0.0272226
0.0262463
0.0248474
0.0230827
0.0210123
0.0186967
0.0161968
0.0135729
0.010882
0.00817593
0.00550107
0.00289749
0.000398555
-0.00196927
-0.00418637
-0.00623964
-0.00812206
-0.00983144
-0.0113708
-0.012747
-0.01397
-0.0150517
-0.0160052
-0.0168444
-0.0175832
-0.0182349
-0.0188119
-0.0193252
-0.0197843
-0.0201972
-0.0205703
-0.0209083
-0.0212144
-0.0214908
-0.0217387
-0.0219583
-0.0221491
-0.0223105
-0.0224416
-0.0225419
-0.0226106
-0.0226477
-0.0226532
-0.0226278
-0.0225724
-0.0224884
-0.0223775
-0.0222417
-0.0220831
-0.0219043
-0.0217077
-0.0214956
-0.0212707
-0.0210352
-0.0207913
-0.0205411
-0.0202866
-0.0200294
-0.019771
-0.0195128
-0.0192558
-0.0190009
-0.0187491
-0.0185007
-0.0182564
-0.0180165
-0.0177812
-0.0175506
-0.0173247
-0.0171036
-0.0168871
-0.0166752
-0.0164675
-0.016264
-0.0160644
-0.0158685
-0.0156759
-0.0154865
-0.0152999
-0.0151159
-0.0149341
-0.0147544
-0.0145764
-0.0143998
-0.0142244
-0.01405
-0.0138763
-0.0137031
-0.0135301
-0.0133572
-0.0131842
-0.0130109
-0.0128372
-0.0126627
-0.0124875
-0.0123113
-0.0121339
-0.0119551
-0.0117748
-0.0115926
-0.0114082
-0.0112211
-0.0110307
-0.0108359
-0.0106353
-0.0104268
-0.0102078
-0.00997497
-0.00972698
-0.00946863
-0.00919411
-0.00889132
-0.0415439
-0.0414501
-0.0413799
-0.0413732
-0.0414266
-0.0415302
-0.041673
-0.0418414
-0.0420193
-0.0421907
-0.0423421
-0.0424644
-0.0425541
-0.0426146
-0.0426561
-0.0426954
-0.0427551
-0.0428624
-0.043048
-0.0433452
-0.0437887
-0.044414
-0.0452555
-0.0463452
-0.0477103
-0.0493698
-0.0513321
-0.0535914
-0.0561259
-0.058896
-0.061845
-0.0649006
-0.0679776
-0.0709817
-0.0738142
-0.0763757
-0.078571
-0.0803118
-0.0815202
-0.0821307
-0.0820916
-0.081366
-0.079933
-0.0777877
-0.074939
-0.0714108
-0.0672473
-0.0625096
-0.0572644
-0.0515893
-0.0455713
-0.0393048
-0.0328887
-0.0264242
-0.0200122
-0.0137507
-0.00773275
-0.00204414
0.00323811
0.00804735
0.0123283
0.0160381
0.0191464
0.0216359
0.0235018
0.024752
0.0254056
0.0254927
0.0250523
0.0241316
0.0227857
0.0210731
0.0190534
0.0167887
0.0143425
0.011776
0.00914658
0.0065065
0.00390235
0.00137412
-0.00104517
-0.00332964
-0.00546048
-0.00742556
-0.00921832
-0.010838
-0.0122885
-0.0135777
-0.0147165
-0.0157175
-0.0165948
-0.0173628
-0.018036
-0.018628
-0.0191514
-0.0196175
-0.0200356
-0.0204134
-0.0207569
-0.0210704
-0.0213565
-0.0216168
-0.0218516
-0.0220607
-0.0222429
-0.0223971
-0.0225221
-0.0226167
-0.0226801
-0.0227119
-0.0227122
-0.0226814
-0.0226206
-0.0225311
-0.0224147
-0.0222735
-0.0221098
-0.0219261
-0.0217248
-0.0215085
-0.0212796
-0.0210407
-0.0207938
-0.0205411
-0.0202844
-0.0200254
-0.0197656
-0.0195062
-0.0192484
-0.018993
-0.0187408
-0.0184923
-0.018248
-0.0180082
-0.0177731
-0.0175428
-0.0173173
-0.0170965
-0.0168805
-0.0166689
-0.0164617
-0.0162586
-0.0160595
-0.0158639
-0.0156718
-0.0154827
-0.0152965
-0.0151128
-0.0149314
-0.0147519
-0.0145742
-0.0143979
-0.0142227
-0.0140485
-0.013875
-0.013702
-0.0135292
-0.0133564
-0.0131836
-0.0130104
-0.0128368
-0.0126625
-0.0124874
-0.0123113
-0.012134
-0.0119554
-0.0117753
-0.0115933
-0.0114092
-0.0112226
-0.0110328
-0.0108392
-0.0106405
-0.0104353
-0.0102214
-0.00999628
-0.00975858
-0.00950837
-0.00924266
-0.00897861
-0.0407988
-0.0407521
-0.0407386
-0.0407896
-0.0409015
-0.041064
-0.0412646
-0.0414878
-0.0417162
-0.0419341
-0.042129
-0.0422946
-0.042432
-0.0425506
-0.0426679
-0.0428094
-0.0430074
-0.0433001
-0.0437301
-0.0443429
-0.0451853
-0.0463024
-0.0477352
-0.0495169
-0.0516685
-0.0541957
-0.0570857
-0.0603052
-0.0638006
-0.0674994
-0.0713134
-0.0751429
-0.0788817
-0.0824219
-0.0856583
-0.0884919
-0.0908329
-0.0926027
-0.0937352
-0.0941775
-0.0938909
-0.0928508
-0.0910472
-0.0884842
-0.0851825
-0.0811803
-0.0765282
-0.0712887
-0.0655364
-0.0593564
-0.0528428
-0.0460961
-0.0392209
-0.0323229
-0.0255066
-0.0188726
-0.0125153
-0.00652135
-0.000967188
0.00408162
0.00857164
0.0124622
0.0157256
0.0183476
0.0203266
0.0216734
0.0224108
0.022571
0.0221983
0.0213436
0.0200609
0.0184089
0.0164516
0.0142542
0.0118807
0.00939295
0.00684849
0.00429989
0.00179351
-0.000631195
-0.00294203
-0.00511423
-0.00713046
-0.00898068
-0.0106564
-0.0121615
-0.0135002
-0.0146815
-0.0157169
-0.0166199
-0.017405
-0.0180872
-0.0186813
-0.019201
-0.0196591
-0.0200667
-0.020433
-0.0207655
-0.0210696
-0.0213491
-0.0216062
-0.0218415
-0.022055
-0.0222455
-0.0224115
-0.0225513
-0.0226631
-0.0227454
-0.0227972
-0.0228179
-0.0228074
-0.0227662
-0.0226953
-0.022596
-0.0224703
-0.0223202
-0.0221482
-0.0219568
-0.0217484
-0.0215258
-0.0212914
-0.0210475
-0.0207964
-0.0205401
-0.0202804
-0.0200191
-0.0197574
-0.0194966
-0.0192377
-0.0189816
-0.018729
-0.0184804
-0.0182361
-0.0179965
-0.0177617
-0.0175318
-0.0173068
-0.0170866
-0.0168711
-0.0166601
-0.0164535
-0.0162511
-0.0160525
-0.0158575
-0.0156659
-0.0154774
-0.0152917
-0.0151085
-0.0149275
-0.0147485
-0.0145711
-0.0143951
-0.0142203
-0.0140464
-0.0138732
-0.0137004
-0.0135278
-0.0133553
-0.0131826
-0.0130097
-0.0128362
-0.0126621
-0.0124871
-0.0123112
-0.0121341
-0.0119558
-0.0117759
-0.0115942
-0.0114105
-0.0112245
-0.0110356
-0.0108433
-0.0106468
-0.0104452
-0.0102367
-0.0100192
-0.00979121
-0.00954841
-0.00928962
-0.00905703
-0.0397755
-0.0397923
-0.0398512
-0.0399699
-0.0401464
-0.040372
-0.0406343
-0.0409183
-0.041208
-0.0414903
-0.0417571
-0.042008
-0.0422512
-0.0425046
-0.0427956
-0.0431604
-0.043643
-0.0442937
-0.0451668
-0.0463182
-0.0478017
-0.0496646
-0.0519433
-0.0546583
-0.0578101
-0.0613768
-0.0653129
-0.0695505
-0.0740028
-0.0785683
-0.0831365
-0.0875933
-0.0918257
-0.0957263
-0.0991955
-0.102144
-0.104494
-0.106179
-0.107144
-0.107347
-0.10676
-0.105365
-0.10316
-0.100158
-0.0963892
-0.0918946
-0.0867298
-0.0809648
-0.0746816
-0.0679733
-0.0609411
-0.0536926
-0.0463383
-0.0389893
-0.031754
-0.024736
-0.0180315
-0.0117273
-0.00589949
-0.000612204
0.00408334
0.00814924
0.0115611
0.0143081
0.0163926
0.0178287
0.018644
0.0188777
0.0185743
0.0177829
0.0165627
0.0149778
0.0130941
0.0109783
0.00869545
0.00630787
0.00387358
0.00144492
-0.000932373
-0.00321988
-0.00538687
-0.00741032
-0.00927451
-0.0109702
-0.0124976
-0.0138556
-0.0150516
-0.0160963
-0.0170022
-0.0177835
-0.0184551
-0.0190324
-0.0195299
-0.0199615
-0.0203397
-0.0206753
-0.0209771
-0.0212521
-0.0215053
-0.0217398
-0.0219572
-0.0221576
-0.02234
-0.0225029
-0.022644
-0.0227612
-0.0228521
-0.0229151
-0.0229488
-0.0229524
-0.0229257
-0.0228692
-0.0227838
-0.022671
-0.0225327
-0.0223709
-0.0221883
-0.0219872
-0.0217703
-0.02154
-0.021299
-0.0210495
-0.0207937
-0.0205335
-0.0202707
-0.0200069
-0.0197434
-0.0194813
-0.0192215
-0.018965
-0.0187123
-0.0184637
-0.0182198
-0.0179807
-0.0177465
-0.0175173
-0.0172931
-0.0170737
-0.016859
-0.0166489
-0.0164431
-0.0162415
-0.0160437
-0.0158495
-0.0156586
-0.0154708
-0.0152857
-0.0151031
-0.0149227
-0.0147442
-0.0145673
-0.0143918
-0.0142174
-0.0140439
-0.013871
-0.0136985
-0.0135262
-0.0133539
-0.0131815
-0.0130087
-0.0128355
-0.0126615
-0.0124868
-0.0123111
-0.0121343
-0.0119562
-0.0117766
-0.0115953
-0.0114121
-0.0112267
-0.0110388
-0.010848
-0.0106538
-0.0104556
-0.0102521
-0.0100413
-0.00982135
-0.00958494
-0.00933093
-0.00911977
-0.0384888
-0.0385822
-0.0387239
-0.0389145
-0.0391557
-0.0394437
-0.0397689
-0.0401196
-0.0404844
-0.0408561
-0.0412339
-0.0416258
-0.0420502
-0.0425357
-0.0431211
-0.0438547
-0.044792
-0.0459937
-0.047522
-0.0494361
-0.051787
-0.0546116
-0.0579277
-0.0617297
-0.0659862
-0.0706403
-0.0756123
-0.0808039
-0.086104
-0.0913952
-0.0965593
-0.101482
-0.106055
-0.110181
-0.113771
-0.116749
-0.119046
-0.120605
-0.12138
-0.121335
-0.120445
-0.118698
-0.116096
-0.112662
-0.108426
-0.103433
-0.0977473
-0.0914461
-0.0846197
-0.0773694
-0.0698049
-0.0620415
-0.0541967
-0.0463875
-0.0387271
-0.0313222
-0.0242708
-0.0176601
-0.0115656
-0.00604952
-0.00116041
0.00306712
0.00661261
0.00946934
0.0116432
0.0131577
0.0140442
0.0143389
0.0140895
0.013354
0.0121955
0.0106805
0.00887717
0.00685391
0.00467725
0.00241033
0.000111389
-0.00216761
-0.00438193
-0.00649476
-0.0084775
-0.0103097
-0.0119789
-0.0134792
-0.0148116
-0.0159801
-0.0169939
-0.0178651
-0.0186074
-0.019236
-0.0197662
-0.0202132
-0.0205916
-0.0209148
-0.0211946
-0.0214413
-0.021663
-0.021866
-0.0220547
-0.0222314
-0.022397
-0.022551
-0.0226917
-0.0228168
-0.0229237
-0.0230096
-0.0230719
-0.0231084
-0.0231176
-0.0230986
-0.0230509
-0.0229749
-0.0228716
-0.0227423
-0.022589
-0.0224139
-0.0222192
-0.0220075
-0.0217814
-0.0215432
-0.0212955
-0.0210405
-0.0207802
-0.0205165
-0.0202511
-0.0199854
-0.0197206
-0.0194578
-0.0191979
-0.0189415
-0.0186891
-0.0184413
-0.0181982
-0.0179601
-0.017727
-0.017499
-0.0172759
-0.0170577
-0.0168442
-0.0166353
-0.0164306
-0.01623
-0.0160333
-0.01584
-0.0156501
-0.0154631
-0.0152789
-0.015097
-0.0149173
-0.0147394
-0.0145631
-0.0143881
-0.0142142
-0.0140411
-0.0138686
-0.0136964
-0.0135245
-0.0133525
-0.0131803
-0.0130078
-0.0128347
-0.012661
-0.0124865
-0.012311
-0.0121344
-0.0119566
-0.0117773
-0.0115964
-0.0114138
-0.0112291
-0.0110422
-0.0108528
-0.0106608
-0.0104656
-0.0102661
-0.0100604
-0.00984622
-0.009615
-0.00936376
-0.00916401
-0.0369936
-0.0371707
-0.0373991
-0.0376601
-0.0379623
-0.0383096
-0.038699
-0.0391251
-0.0395845
-0.0400786
-0.0406167
-0.0412179
-0.0419123
-0.0427406
-0.0437536
-0.0450104
-0.0465753
-0.048514
-0.0508886
-0.0537511
-0.0571371
-0.0610607
-0.0655098
-0.0704447
-0.0757993
-0.0814844
-0.0873938
-0.0934104
-0.0994132
-0.105283
-0.110904
-0.116173
-0.120992
-0.125275
-0.128944
-0.13193
-0.134171
-0.135614
-0.136217
-0.135945
-0.134775
-0.132698
-0.129721
-0.125867
-0.121169
-0.115682
-0.109475
-0.102634
-0.0952593
-0.0874608
-0.0793576
-0.0710739
-0.0627351
-0.0544648
-0.0463815
-0.0385952
-0.0312059
-0.0243012
-0.0179553
-0.0122284
-0.00716576
-0.0027981
0.000858268
0.00380236
0.00604999
0.00762418
0.00855478
0.00888798
0.00867894
0.00798936
0.00688579
0.00543796
0.00371694
0.0017933
-0.00026473
-0.00239301
-0.00453305
-0.00663331
-0.00865032
-0.0105492
-0.0123042
-0.0138981
-0.0153228
-0.0165767
-0.0176643
-0.018594
-0.0193777
-0.02003
-0.0205667
-0.0210039
-0.0213576
-0.021643
-0.0218741
-0.0220635
-0.0222222
-0.0223594
-0.0224824
-0.0225963
-0.0227047
-0.022809
-0.0229094
-0.0230044
-0.0230918
-0.0231687
-0.0232318
-0.0232778
-0.0233038
-0.0233073
-0.0232863
-0.0232397
-0.023167
-0.0230684
-0.0229447
-0.0227973
-0.0226278
-0.0224384
-0.0222314
-0.0220092
-0.0217742
-0.0215287
-0.0212751
-0.0210154
-0.0207516
-0.0204854
-0.0202184
-0.0199518
-0.0196868
-0.0194243
-0.019165
-0.0189096
-0.0186586
-0.0184122
-0.0181708
-0.0179343
-0.0177029
-0.0174766
-0.0172552
-0.0170386
-0.0168267
-0.0166193
-0.0164161
-0.0162169
-0.0160214
-0.0158294
-0.0156406
-0.0154546
-0.0152713
-0.0150903
-0.0149114
-0.0147343
-0.0145586
-0.0143842
-0.0142108
-0.0140382
-0.0138661
-0.0136943
-0.0135227
-0.0133511
-0.0131792
-0.0130069
-0.0128341
-0.0126606
-0.0124863
-0.012311
-0.0121346
-0.0119571
-0.0117781
-0.0115976
-0.0114154
-0.0112314
-0.0110454
-0.0108573
-0.010667
-0.010474
-0.0102774
-0.010075
-0.00986429
-0.00963692
-0.00938693
-0.00919041
-0.0353877
-0.0356487
-0.0359609
-0.0362867
-0.0366434
-0.0370471
-0.0375042
-0.038019
-0.0385983
-0.0392549
-0.0400102
-0.0408959
-0.0419545
-0.0432385
-0.0448088
-0.0467319
-0.049075
-0.0519009
-0.055261
-0.059189
-0.063695
-0.0687612
-0.0743415
-0.0803625
-0.0867288
-0.0933287
-0.100042
-0.106746
-0.113322
-0.119657
-0.125647
-0.1312
-0.136228
-0.140653
-0.144405
-0.147416
-0.149629
-0.15099
-0.151455
-0.150989
-0.14957
-0.147189
-0.14386
-0.139601
-0.134455
-0.128481
-0.121759
-0.114383
-0.106462
-0.0981177
-0.0894785
-0.0806786
-0.071852
-0.0631298
-0.0546357
-0.0464836
-0.0387753
-0.0315984
-0.0250258
-0.0191147
-0.0139069
-0.00942921
-0.0056895
-0.00268195
-0.000392571
0.00120474
0.00215208
0.00250163
0.00231323
0.00165313
0.000592141
-0.000796218
-0.00243767
-0.00425906
-0.00619025
-0.00816587
-0.0101269
-0.0120222
-0.0138096
-0.0154563
-0.0169396
-0.0182463
-0.0193742
-0.0203274
-0.0211146
-0.0217492
-0.0222477
-0.0226283
-0.0229097
-0.0231096
-0.023245
-0.023331
-0.023381
-0.0234066
-0.0234174
-0.0234212
-0.0234239
-0.0234295
-0.02344
-0.0234561
-0.0234768
-0.0234998
-0.0235222
-0.0235403
-0.0235503
-0.0235483
-0.023531
-0.0234955
-0.0234396
-0.0233616
-0.023261
-0.0231376
-0.0229922
-0.0228257
-0.0226399
-0.0224366
-0.0222179
-0.021986
-0.0217432
-0.0214917
-0.0212335
-0.0209706
-0.0207048
-0.0204376
-0.0201704
-0.0199043
-0.0196403
-0.0193794
-0.019122
-0.0188687
-0.01862
-0.018376
-0.018137
-0.017903
-0.017674
-0.01745
-0.0172309
-0.0170165
-0.0168066
-0.0166011
-0.0163997
-0.0162022
-0.0160083
-0.0158177
-0.0156302
-0.0154455
-0.0152633
-0.0150833
-0.0149053
-0.0147289
-0.014554
-0.0143803
-0.0142075
-0.0140354
-0.0138637
-0.0136924
-0.0135211
-0.0133497
-0.0131781
-0.0130061
-0.0128335
-0.0126602
-0.0124861
-0.012311
-0.0121349
-0.0119575
-0.0117788
-0.0115986
-0.0114169
-0.0112334
-0.0110481
-0.010861
-0.0106718
-0.0104803
-0.0102852
-0.0100845
-0.00987523
-0.00965037
-0.00940062
-0.00920196
-0.0338044
-0.034142
-0.0345282
-0.0349087
-0.0353147
-0.0357744
-0.0363065
-0.0369273
-0.0376561
-0.0385187
-0.0395496
-0.0407934
-0.0423041
-0.0441439
-0.0463802
-0.0490808
-0.0523084
-0.0561135
-0.0605279
-0.0655586
-0.0711839
-0.0773529
-0.0839878
-0.0909888
-0.0982412
-0.105623
-0.113011
-0.120288
-0.127343
-0.134075
-0.140391
-0.146207
-0.151443
-0.156026
-0.159886
-0.162956
-0.165175
-0.166489
-0.166851
-0.166224
-0.164584
-0.161928
-0.158266
-0.153622
-0.148044
-0.1416
-0.134377
-0.126478
-0.118025
-0.109147
-0.0999867
-0.0906869
-0.0813913
-0.0722386
-0.0633582
-0.0548679
-0.046871
-0.0394547
-0.03269
-0.0266309
-0.0213158
-0.0167616
-0.0129729
-0.00994528
-0.00765668
-0.00607006
-0.00513708
-0.00480002
-0.00499333
-0.00564553
-0.00668112
-0.00802255
-0.00959215
-0.0113139
-0.0131156
-0.0149301
-0.0166977
-0.0183672
-0.0198973
-0.0212576
-0.0224285
-0.0234018
-0.0241813
-0.0247778
-0.0252057
-0.0254848
-0.0256378
-0.0256882
-0.0256583
-0.0255689
-0.0254381
-0.0252815
-0.0251117
-0.0249391
-0.0247717
-0.0246154
-0.0244742
-0.0243504
-0.0242445
-0.0241558
-0.0240821
-0.0240202
-0.023966
-0.0239154
-0.0238636
-0.0238064
-0.0237399
-0.0236606
-0.0235658
-0.0234538
-0.0233235
-0.0231743
-0.0230067
-0.0228215
-0.0226199
-0.0224036
-0.0221745
-0.0219345
-0.0216856
-0.0214297
-0.0211688
-0.0209045
-0.0206384
-0.0203719
-0.0201061
-0.0198421
-0.0195807
-0.0193226
-0.0190684
-0.0188184
-0.0185731
-0.0183325
-0.0180968
-0.017866
-0.0176402
-0.0174192
-0.0172029
-0.0169912
-0.0167839
-0.0165807
-0.0163815
-0.016186
-0.0159939
-0.015805
-0.015619
-0.0154357
-0.0152548
-0.0150759
-0.0148989
-0.0147235
-0.0145494
-0.0143764
-0.0142042
-0.0140326
-0.0138615
-0.0136905
-0.0135196
-0.0133486
-0.0131772
-0.0130054
-0.0128331
-0.01266
-0.012486
-0.0123111
-0.0121351
-0.0119579
-0.0117794
-0.0115994
-0.0114179
-0.0112348
-0.01105
-0.0108635
-0.0106749
-0.0104839
-0.0102893
-0.0100889
-0.00987963
-0.00965605
-0.00940588