/*--------------------------------*- C++ -*----------------------------------*\
  =========                 |
  \\      /  F ield         | OpenFOAM: The Open Source CFD Toolbox
   \\    /   O peration     | Website:  https://openfoam.org
    \\  /    A nd           | Version:  8
     \\/     M anipulation  |
\*---------------------------------------------------------------------------*/
FoamFile
{
    version     2.0;
    format      ascii;
    class       surfaceScalarField;
    location    "0.36";
    object      phi;
}
// * * * * * * * * * * * * * * * * * * * * * * * * * * * * * * * * * * * * * //

dimensions      [0 3 -1 0 0 0 0];

internalField   nonuniform List<scalar> 
24170
(
1.57279e-11
-1.57279e-11
3.37539e-11
-1.8026e-11
4.39978e-11
-1.02439e-11
5.00463e-11
-6.04847e-12
6.08652e-11
-1.08189e-11
8.69533e-11
-2.60881e-11
1.39815e-10
-5.28616e-11
2.31217e-10
-9.14022e-11
3.71262e-10
-1.40045e-10
5.65198e-10
-1.93936e-10
8.10148e-10
-2.44951e-10
1.09341e-09
-2.83264e-10
1.39388e-09
-3.0047e-10
1.6868e-09
-2.92919e-10
1.94847e-09
-2.61664e-10
2.13682e-09
-1.88351e-10
2.15524e-09
-1.84242e-11
1.95508e-09
2.00161e-10
4.52042e-11
-6.09321e-11
9.34812e-11
-6.6303e-11
1.18785e-10
-3.55475e-11
1.32979e-10
-2.02431e-11
1.63454e-10
-4.12937e-11
2.4245e-10
-1.05084e-10
4.0458e-10
-2.14991e-10
6.84112e-10
-3.70934e-10
1.10895e-09
-5.64886e-10
1.69151e-09
-7.76493e-10
2.41962e-09
-9.73063e-10
3.25188e-09
-1.11552e-09
4.12041e-09
-1.169e-09
4.93963e-09
-1.11213e-09
5.60774e-09
-9.29775e-10
5.95895e-09
-5.39559e-10
5.45633e-09
4.84187e-10
5.01206e-09
2.39936e-09
7.29817e-11
-1.33914e-10
1.47304e-10
-1.40625e-10
1.82754e-10
-7.09979e-11
2.01027e-10
-3.85158e-11
2.49326e-10
-8.9593e-11
3.83145e-10
-2.38903e-10
6.61051e-10
-4.92898e-10
1.13942e-09
-8.49298e-10
1.86204e-09
-1.28751e-09
2.84535e-09
-1.7598e-09
4.06403e-09
-2.19174e-09
5.44345e-09
-2.49494e-09
6.8622e-09
-2.58775e-09
8.16047e-09
-2.41041e-09
9.13302e-09
-1.90232e-09
9.45511e-09
-8.61657e-10
8.37612e-09
1.56318e-09
8.56307e-09
4.82511e-09
9.73135e-11
-2.31227e-10
1.9276e-10
-2.36071e-10
2.33061e-10
-1.11299e-10
2.50706e-10
-5.61603e-11
3.13472e-10
-1.52359e-10
5.00732e-10
-4.26163e-10
8.94848e-10
-8.87013e-10
1.57283e-09
-1.52728e-09
2.59166e-09
-2.30635e-09
3.96841e-09
-3.13655e-09
5.66133e-09
-3.88466e-09
7.55952e-09
-4.39313e-09
9.48416e-09
-4.51238e-09
1.11949e-08
-4.12113e-09
1.23787e-08
-3.08619e-09
1.25865e-08
-1.06945e-09
1.10934e-08
3.05636e-09
1.22939e-08
7.36255e-09
1.17513e-10
-3.4874e-10
2.29078e-10
-3.47637e-10
2.6967e-10
-1.51891e-10
2.82378e-10
-6.8868e-11
3.55283e-10
-2.25265e-10
5.91153e-10
-6.62033e-10
1.09479e-09
-1.39065e-09
1.96129e-09
-2.39378e-09
3.25745e-09
-3.60251e-09
4.99775e-09
-4.87685e-09
7.12204e-09
-6.00895e-09
9.48285e-09
-6.75394e-09
1.18452e-08
-6.87471e-09
1.38924e-08
-6.16832e-09
1.52216e-08
-4.41538e-09
1.53205e-08
-1.16843e-09
1.35963e-08
4.78056e-09
1.59723e-08
9.91797e-09
1.34016e-10
-4.82756e-10
2.58318e-10
-4.71938e-10
2.97069e-10
-1.90642e-10
3.02431e-10
-7.42301e-11
3.81185e-10
-3.04018e-10
6.57629e-10
-9.38478e-10
1.25633e-09
-1.98936e-09
2.28685e-09
-3.42429e-09
3.82203e-09
-5.13769e-09
5.87124e-09
-6.92606e-09
8.35597e-09
-8.49369e-09
1.10957e-08
-9.49363e-09
1.38067e-08
-9.58577e-09
1.61109e-08
-8.47255e-09
1.75464e-08
-5.85083e-09
1.75944e-08
-1.2164e-09
1.5823e-08
6.55197e-09
1.94146e-08
1.23807e-08
1.48519e-10
-6.31275e-10
2.85898e-10
-6.09317e-10
3.25302e-10
-2.30046e-10
3.24837e-10
-7.37657e-11
4.06737e-10
-3.85917e-10
7.13409e-10
-1.24515e-09
1.3848e-09
-2.66075e-09
2.54059e-09
-4.58008e-09
4.25577e-09
-6.85287e-09
6.53317e-09
-9.20345e-09
9.27858e-09
-1.12391e-08
1.22862e-08
-1.25012e-08
1.5238e-08
-1.25376e-08
1.77173e-08
-1.09518e-08
1.92384e-08
-7.37197e-09
1.93179e-08
-1.29582e-09
1.76738e-08
8.196e-09
2.24669e-08
1.46215e-08
1.64133e-10
-7.95408e-10
3.21066e-10
-7.6625e-10
3.70809e-10
-2.79788e-10
3.72455e-10
-7.5412e-11
4.58498e-10
-4.7196e-10
7.83978e-10
-1.57063e-09
1.49907e-09
-3.37584e-09
2.72771e-09
-5.80873e-09
4.54348e-09
-8.66863e-09
6.94273e-09
-1.16027e-08
9.82112e-09
-1.41175e-08
1.29598e-08
-1.56399e-08
1.60262e-08
-1.5604e-08
1.85931e-08
-1.35187e-08
2.01857e-08
-8.96456e-09
2.03812e-08
-1.49127e-09
1.90188e-08
9.55837e-09
2.49962e-08
1.64894e-08
1.85253e-10
-9.80661e-10
3.76604e-10
-9.57601e-10
4.56066e-10
-3.5925e-10
4.76772e-10
-9.61179e-11
5.74182e-10
-5.6937e-10
9.08795e-10
-1.90524e-09
1.63364e-09
-4.10069e-09
2.87114e-09
-7.04623e-09
4.69005e-09
-1.04875e-08
7.08189e-09
-1.39945e-08
9.94041e-09
-1.6976e-08
1.30497e-08
-1.87492e-08
1.60863e-08
-1.86406e-08
1.86425e-08
-1.6075e-08
2.02846e-08
-1.06066e-08
2.06634e-08
-1.87009e-09
1.97058e-08
1.0516e-08
2.68892e-08
1.78128e-08
2.16958e-10
-1.19762e-09
4.67343e-10
-1.20799e-09
6.07274e-10
-4.99181e-10
6.75038e-10
-1.63882e-10
7.99683e-10
-6.94015e-10
1.13791e-09
-2.24347e-09
1.83727e-09
-4.80005e-09
3.01205e-09
-8.221e-09
4.72342e-09
-1.21989e-08
6.96086e-09
-1.6232e-08
9.62664e-09
-1.96418e-08
1.25261e-08
-2.16486e-08
1.53702e-08
-2.14847e-08
1.78005e-08
-1.85053e-08
1.94489e-08
-1.2255e-08
2.00452e-08
-2.4664e-09
1.95748e-08
1.09863e-08
2.80566e-08
1.84075e-08
2.64165e-10
-1.46178e-09
6.07158e-10
-1.55098e-09
8.49362e-10
-7.41385e-10
1.00377e-09
-3.18292e-10
1.18163e-09
-8.71873e-10
1.52502e-09
-2.58686e-09
2.16642e-09
-5.44146e-09
3.20516e-09
-9.25974e-09
4.69227e-09
-1.3686e-08
6.61901e-09
-1.81587e-08
8.90711e-09
-2.19299e-08
1.1402e-08
-2.41435e-08
1.38743e-08
-2.3957e-08
1.60416e-08
-2.06725e-08
1.76215e-08
-1.38349e-08
1.84247e-08
-3.26969e-09
1.84753e-08
1.09358e-08
2.84423e-08
1.80896e-08
2.74219e-10
-1.736e-09
6.64278e-10
-1.94104e-09
9.85423e-10
-1.06253e-09
1.22017e-09
-5.53039e-10
1.43864e-09
-1.09035e-09
1.74035e-09
-2.88857e-09
2.2178e-09
-5.9189e-09
2.938e-09
-9.97994e-09
3.93439e-09
-1.46824e-08
5.20342e-09
-1.94277e-08
6.70181e-09
-2.34283e-08
8.34308e-09
-2.57848e-08
9.99706e-09
-2.5611e-08
1.15017e-08
-2.21771e-08
1.26973e-08
-1.50305e-08
1.34881e-08
-4.0605e-09
1.39165e-08
1.05074e-08
2.8153e-08
1.42057e-08
3.81678e-10
-2.11768e-09
9.72648e-10
-2.53201e-09
1.51123e-09
-1.60112e-09
1.93781e-09
-9.79616e-10
2.29659e-09
-1.44913e-09
2.66836e-09
-3.26034e-09
3.12898e-09
-6.37952e-09
3.73071e-09
-1.05817e-08
4.49891e-09
-1.54506e-08
5.43585e-09
-2.03647e-08
6.52415e-09
-2.45166e-08
7.72545e-09
-2.69861e-08
8.97676e-09
-2.68623e-08
1.0194e-08
-2.33944e-08
1.12947e-08
-1.61312e-08
1.22438e-08
-5.00963e-09
1.3111e-08
9.64028e-09
2.71599e-08
1.41041e-08
5.30683e-10
-2.64836e-09
1.41861e-09
-3.41993e-09
2.29659e-09
-2.4791e-09
3.03668e-09
-1.71971e-09
3.63011e-09
-2.04256e-09
4.11264e-09
-3.74287e-09
4.52079e-09
-6.78767e-09
4.87529e-09
-1.09362e-08
5.18521e-09
-1.57605e-08
5.46185e-09
-2.06413e-08
5.73108e-09
-2.47858e-08
6.03575e-09
-2.72908e-08
6.42713e-09
-2.72537e-08
6.95493e-09
-2.39222e-08
7.66679e-09
-1.68431e-08
8.62714e-09
-5.96998e-09
9.95093e-09
8.3165e-09
2.52883e-08
1.18225e-08
7.15518e-10
-3.36388e-09
1.9961e-09
-4.70051e-09
3.35024e-09
-3.83324e-09
4.55332e-09
-2.92279e-09
5.50853e-09
-2.99776e-09
6.17035e-09
-4.40468e-09
6.50487e-09
-7.1222e-09
6.47852e-09
-1.09098e-08
6.07176e-09
-1.53538e-08
5.3049e-09
-1.98745e-08
4.26108e-09
-2.3742e-08
3.09445e-09
-2.61241e-08
2.01655e-09
-2.61758e-08
1.26982e-09
-2.31754e-08
1.09601e-09
-1.66693e-08
1.71499e-09
-6.58897e-09
3.31953e-09
6.71195e-09
2.25217e-08
6.08613e-09
8.909e-10
-4.25478e-09
2.58846e-09
-6.39808e-09
4.49596e-09
-5.74074e-09
6.27778e-09
-4.7046e-09
7.71649e-09
-4.43648e-09
8.64654e-09
-5.33473e-09
8.92987e-09
-7.40552e-09
8.45209e-09
-1.0432e-08
7.14772e-09
-1.40494e-08
5.03653e-09
-1.77633e-08
2.25634e-09
-2.09618e-08
-9.21295e-10
-2.29465e-08
-4.10438e-09
-2.29927e-08
-6.81925e-09
-2.04606e-08
-8.57477e-09
-1.49137e-08
-8.93259e-09
-6.23115e-09
-7.55401e-09
5.33338e-09
1.91927e-08
-4.225e-09
9.5052e-10
-5.2053e-09
2.89923e-09
-8.34679e-09
5.2403e-09
-8.0818e-09
7.5534e-09
-7.01771e-09
9.49355e-09
-6.37663e-09
1.07578e-08
-6.599e-09
1.108e-08
-7.7277e-09
1.02467e-08
-9.59879e-09
8.12789e-09
-1.19306e-08
4.71612e-09
-1.43515e-08
1.69146e-10
-1.64148e-08
-5.16535e-09
-1.7612e-08
-1.07555e-08
-1.74025e-08
-1.59245e-08
-1.52916e-08
-1.99327e-08
-1.09056e-08
-2.20848e-08
-4.079e-09
-2.18203e-08
5.06891e-09
1.61637e-08
-1.87913e-08
7.5588e-10
-5.96118e-09
2.52532e-09
-1.01162e-08
4.87254e-09
-1.0429e-08
7.37349e-09
-9.51866e-09
9.60309e-09
-8.60623e-09
1.11483e-08
-8.14423e-09
1.16383e-08
-8.21772e-09
1.07734e-08
-8.73386e-09
8.35356e-09
-9.51071e-09
4.31796e-09
-1.03159e-08
-1.2164e-09
-1.08805e-08
-7.92224e-09
-1.09062e-08
-1.52507e-08
-1.00741e-08
-2.24601e-08
-8.08223e-09
-2.86833e-08
-4.68231e-09
-3.30278e-08
2.65462e-10
-3.47174e-08
6.75845e-09
1.46299e-08
-3.31836e-08
2.50908e-10
-6.21209e-09
1.26826e-09
-1.11336e-08
2.96552e-09
-1.21263e-08
5.03063e-09
-1.15838e-08
7.04529e-09
-1.06209e-08
8.58232e-09
-9.68127e-09
9.25506e-09
-8.89045e-09
8.74919e-09
-8.22799e-09
6.84721e-09
-7.60872e-09
3.45032e-09
-6.91902e-09
-1.39631e-09
-6.03383e-09
-7.47751e-09
-4.82496e-09
-1.4386e-08
-3.16557e-09
-2.15297e-08
-9.38508e-10
-2.81626e-08
1.95054e-09
-3.34538e-08
5.55667e-09
-3.65828e-08
9.8875e-09
1.48839e-08
-3.68368e-08
-2.27953e-10
-5.98414e-09
-2.91323e-10
-1.10702e-08
2.6263e-13
-1.24179e-08
5.67849e-10
-1.21514e-08
1.22279e-09
-1.12758e-08
1.75868e-09
-1.02172e-08
1.99287e-09
-9.12465e-09
1.78474e-09
-8.01986e-09
1.04268e-09
-6.86666e-09
-2.71132e-10
-5.6052e-09
-2.13512e-09
-4.16985e-09
-4.46256e-09
-2.49752e-09
-7.09667e-09
-5.31448e-10
-9.80706e-09
1.77187e-09
-1.22965e-08
4.43994e-09
-1.42193e-08
7.47954e-09
-1.52056e-08
1.08737e-08
1.45764e-08
-1.48981e-08
-5.52559e-10
-5.43158e-09
-1.33271e-09
-1.02901e-08
-1.97731e-09
-1.17733e-08
-2.42349e-09
-1.17052e-08
-2.73226e-09
-1.0967e-08
-2.99367e-09
-9.95575e-09
-3.28869e-09
-8.82962e-09
-3.67637e-09
-7.63219e-09
-4.18885e-09
-6.35418e-09
-4.82983e-09
-4.96422e-09
-5.57417e-09
-3.42551e-09
-6.36679e-09
-1.7049e-09
-7.12074e-09
2.22497e-10
-7.71859e-09
2.36972e-09
-8.01551e-09
4.73687e-09
-7.84573e-09
7.30976e-09
-7.03216e-09
1.00601e-08
1.29456e-08
-5.40133e-09
-8.31566e-10
-4.60001e-09
-2.22248e-09
-8.89915e-09
-3.66249e-09
-1.03333e-08
-4.97976e-09
-1.03879e-08
-6.13804e-09
-9.80877e-09
-7.14495e-09
-8.94884e-09
-8.01665e-09
-7.95793e-09
-8.76351e-09
-6.88533e-09
-9.38486e-09
-5.73283e-09
-9.86695e-09
-4.48212e-09
-1.01825e-08
-3.10999e-09
-1.02908e-08
-1.59652e-09
-1.01388e-08
7.04248e-11
-9.6621e-09
1.89304e-09
-8.78772e-09
3.86249e-09
-7.43724e-09
5.95928e-09
-5.53136e-09
8.15427e-09
1.04102e-08
-2.99595e-09
-9.99788e-10
-3.60022e-09
-2.77295e-09
-7.12599e-09
-4.72269e-09
-8.38352e-09
-6.61046e-09
-8.50013e-09
-8.33974e-09
-8.07949e-09
-9.87082e-09
-7.41776e-09
-1.11857e-08
-6.64304e-09
-1.22717e-08
-5.79931e-09
-1.3114e-08
-4.89056e-09
-1.36921e-08
-3.90405e-09
-1.39792e-08
-2.8229e-09
-1.39426e-08
-1.63308e-09
-1.35451e-08
-3.27036e-10
-1.27469e-08
1.09481e-09
-1.15074e-08
2.62298e-09
-9.78778e-09
4.23966e-09
-7.55337e-09
5.91986e-09
7.63287e-09
-4.77609e-09
-1.01782e-09
-2.5824e-09
-2.88225e-09
-5.26156e-09
-4.99197e-09
-6.2738e-09
-7.08558e-09
-6.40652e-09
-9.04027e-09
-6.1248e-09
-1.07971e-08
-5.66094e-09
-1.23257e-08
-5.11445e-09
-1.36061e-08
-4.51889e-09
-1.46198e-08
-3.87688e-09
-1.53455e-08
-3.1783e-09
-1.57584e-08
-2.41e-09
-1.58304e-08
-1.56108e-09
-1.55318e-08
-6.25687e-10
-1.48329e-08
3.95905e-10
-1.37067e-08
1.49676e-09
-1.21303e-08
2.66334e-09
-1.00872e-08
3.87675e-09
5.11355e-09
-7.56791e-09
-9.04497e-10
-1.67791e-09
-2.61059e-09
-3.55548e-09
-4.58254e-09
-4.30185e-09
-6.56973e-09
-4.41932e-09
-8.44844e-09
-4.2461e-09
-1.01591e-08
-3.95032e-09
-1.16716e-08
-3.60192e-09
-1.29671e-08
-3.22334e-09
-1.40288e-08
-2.81522e-09
-1.48376e-08
-2.36946e-09
-1.53716e-08
-1.87601e-09
-1.56062e-08
-1.32646e-09
-1.5516e-08
-7.15973e-10
-1.50759e-08
-4.41269e-11
-1.42642e-08
6.85014e-10
-1.30635e-08
1.46263e-09
-1.14627e-08
2.27597e-09
3.10874e-09
-9.45786e-09
-7.12398e-10
-9.65509e-10
-2.10676e-09
-2.16111e-09
-3.75225e-09
-2.65635e-09
-5.42968e-09
-2.7419e-09
-7.03051e-09
-2.64526e-09
-8.50476e-09
-2.47607e-09
-9.8287e-09
-2.27799e-09
-1.0988e-08
-2.06402e-09
-1.19697e-08
-1.83356e-09
-1.27584e-08
-1.58068e-09
-1.33361e-08
-1.29832e-09
-1.36821e-08
-9.80507e-10
-1.37746e-08
-6.23526e-10
-1.35922e-08
-2.26516e-10
-1.31157e-08
2.08589e-10
-1.233e-08
6.76884e-10
-1.12248e-08
1.17081e-09
1.68039e-09
-9.79649e-09
-4.96598e-10
-4.68911e-10
-1.52188e-09
-1.13583e-09
-2.75928e-09
-1.41896e-09
-4.0319e-09
-1.46928e-09
-5.25517e-09
-1.42199e-09
-6.39279e-09
-1.33845e-09
-7.42893e-09
-1.24184e-09
-8.35449e-09
-1.13847e-09
-9.16071e-09
-1.02734e-09
-9.83663e-09
-9.04758e-10
-1.03685e-08
-7.66468e-10
-1.07402e-08
-6.08822e-10
-1.09343e-08
-4.29382e-10
-1.09336e-08
-2.27258e-10
-1.07218e-08
-3.18175e-12
-1.02856e-08
2.40683e-10
-9.61524e-09
5.00458e-10
7.71097e-10
-8.70595e-09
-2.97807e-10
-1.71105e-10
-9.65309e-10
-4.68326e-10
-1.79032e-09
-5.9394e-10
-2.64392e-09
-6.15682e-10
-3.46869e-09
-5.97222e-10
-4.24213e-09
-5.65011e-10
-4.95547e-09
-5.28507e-10
-5.60397e-09
-4.8997e-10
-6.18262e-09
-4.48693e-10
-6.68448e-09
-4.02888e-10
-7.10038e-09
-3.50574e-10
-7.41918e-09
-2.90023e-10
-7.62855e-09
-2.2001e-10
-7.71587e-09
-1.39942e-10
-7.66896e-09
-5.0088e-11
-7.4774e-09
4.91221e-11
-7.1328e-09
1.5586e-10
2.68306e-10
-6.63001e-09
-1.39153e-10
-3.19516e-11
-4.97742e-10
-1.09737e-10
-9.5078e-10
-1.40902e-10
-1.42061e-09
-1.45851e-10
-1.87611e-09
-1.41725e-10
-2.30631e-09
-1.34813e-10
-2.70757e-09
-1.27241e-10
-3.07812e-09
-1.1942e-10
-3.41572e-09
-1.11097e-10
-3.71682e-09
-1.01785e-10
-3.97644e-09
-9.09593e-11
-4.1883e-09
-7.81571e-11
-4.34528e-09
-6.30302e-11
-4.43984e-09
-4.53822e-11
-4.46469e-09
-2.52457e-11
-4.41297e-09
-2.5976e-12
-4.27917e-09
2.20634e-11
4.8385e-11
-4.05925e-09
-3.19516e-11
-1.41689e-10
-2.82591e-10
-4.28442e-10
-5.70167e-10
-7.04979e-10
-8.3222e-10
-9.5164e-10
-1.06274e-09
-1.16452e-09
-1.25548e-09
-1.33364e-09
-1.39667e-09
-1.44205e-09
-1.4673e-09
-1.46989e-09
-1.44783e-09
-1.39945e-09
3.28934e-11
-3.28934e-11
2.93592e-10
-2.60698e-10
8.26698e-10
-5.33106e-10
1.60057e-09
-7.73876e-10
2.55088e-09
-9.50304e-10
3.59831e-09
-1.04743e-09
4.65997e-09
-1.06167e-09
5.65808e-09
-9.98106e-10
6.52648e-09
-8.68403e-10
7.21507e-09
-6.8859e-10
7.69193e-09
-4.76861e-10
7.94334e-09
-2.51401e-10
7.9717e-09
-2.83685e-11
7.79167e-09
1.80037e-10
7.42572e-09
3.65947e-10
6.89823e-09
5.27489e-10
6.23038e-09
6.6785e-10
5.43556e-09
7.94822e-10
4.51607e-09
9.19491e-10
3.46152e-09
1.05455e-09
2.24903e-09
1.21249e-09
8.4481e-10
1.40422e-09
-7.92932e-10
1.63774e-09
-2.71093e-09
1.91799e-09
-4.95746e-09
2.24654e-09
-7.57921e-09
2.62174e-09
-1.0619e-08
3.03982e-09
-1.41141e-08
3.49512e-09
-1.80945e-08
3.98031e-09
-2.25809e-08
4.48643e-09
-2.75837e-08
5.00282e-09
-3.31008e-08
5.51705e-09
-3.91158e-08
6.01501e-09
-4.55969e-08
6.48115e-09
-5.24958e-08
6.89894e-09
-5.97473e-08
7.25146e-09
-6.72695e-08
7.52216e-09
-7.49652e-08
7.69568e-09
-8.27238e-08
7.75863e-09
-9.04241e-08
7.70033e-09
-9.79376e-08
7.51346e-09
-1.05132e-07
7.19446e-09
-1.11876e-07
6.7438e-09
-1.18042e-07
6.16605e-09
-1.23512e-07
5.46961e-09
-1.28178e-07
4.6663e-09
-1.31948e-07
3.77066e-09
-1.34748e-07
2.7994e-09
-1.36519e-07
1.77124e-09
-1.37224e-07
7.04803e-10
-1.36859e-07
-3.64414e-10
-1.35399e-07
-1.46053e-09
-1.32887e-07
-2.51153e-09
-1.29368e-07
-3.51961e-09
-1.249e-07
-4.46801e-09
-1.19557e-07
-5.34255e-09
-1.13426e-07
-6.13154e-09
-1.066e-07
-6.82563e-09
-9.91824e-08
-7.41768e-09
-9.12797e-08
-7.90268e-09
-8.30021e-08
-8.27764e-09
-7.44606e-08
-8.54145e-09
-6.57659e-08
-8.69479e-09
-5.70259e-08
-8.73997e-09
-4.83451e-08
-8.68081e-09
-3.98225e-08
-8.52256e-09
-3.15508e-08
-8.27174e-09
-2.36147e-08
-7.93604e-09
-1.60905e-08
-7.52422e-09
-9.04461e-09
-7.04591e-09
-2.53324e-09
-6.51137e-09
3.39867e-09
-5.93191e-09
8.72054e-09
-5.32187e-09
1.34069e-08
-4.68636e-09
1.74482e-08
-4.04134e-09
2.08441e-08
-3.39584e-09
2.36054e-08
-2.76137e-09
2.57538e-08
-2.14835e-09
2.73195e-08
-1.56569e-09
2.83404e-08
-1.02086e-09
2.88602e-08
-5.19884e-10
2.89275e-08
-6.72725e-11
2.85936e-08
3.33921e-10
2.79112e-08
6.8236e-10
2.69332e-08
9.78e-10
2.5711e-08
1.22221e-09
2.42939e-08
1.4171e-09
2.2728e-08
1.56588e-09
2.10554e-08
1.6726e-09
1.93136e-08
1.74189e-09
1.75348e-08
1.77873e-09
1.57466e-08
1.78826e-09
1.3971e-08
1.77555e-09
1.22256e-08
1.74547e-09
1.05231e-08
1.7025e-09
8.87245e-09
1.6506e-09
7.27933e-09
1.59312e-09
5.74661e-09
1.53272e-09
4.27525e-09
1.47136e-09
2.86489e-09
1.41036e-09
1.51447e-09
1.35043e-09
2.22502e-10
1.29197e-09
-1.01241e-09
1.23492e-09
-2.1909e-09
1.17848e-09
-3.31295e-09
1.12205e-09
-4.37815e-09
1.0652e-09
-5.38569e-09
1.00754e-09
-6.3345e-09
9.48808e-10
-7.22341e-09
8.88913e-10
-8.05134e-09
8.2793e-10
-8.81743e-09
7.6609e-10
-9.52119e-09
7.0376e-10
-1.01626e-08
6.41404e-10
-1.07421e-08
5.79552e-10
-1.12609e-08
5.18757e-10
-1.17205e-08
4.59566e-10
-1.2123e-08
4.02492e-10
-1.2471e-08
3.4799e-10
-1.27674e-08
2.96449e-10
-1.30156e-08
2.48171e-10
-1.3219e-08
2.0338e-10
-1.33812e-08
1.62214e-10
-1.35059e-08
1.24733e-10
-1.35968e-08
9.09271e-11
-1.36575e-08
6.07245e-11
-1.36915e-08
3.39949e-11
-1.37022e-08
1.06812e-11
-1.36929e-08
-9.31215e-12
-1.36658e-08
-2.71463e-11
-1.36241e-08
-4.1671e-11
-1.35703e-08
-5.38195e-11
-1.35065e-08
-6.37935e-11
-1.34347e-08
-7.17849e-11
-1.33567e-08
-7.8007e-11
-1.3274e-08
-8.26682e-11
-1.31881e-08
-8.59669e-11
-1.31e-08
-8.80876e-11
-1.30108e-08
-8.92028e-11
-1.29213e-08
-8.94686e-11
-1.28323e-08
-8.90271e-11
-1.27443e-08
-8.8006e-11
-1.26577e-08
-8.65179e-11
-1.25731e-08
-8.46628e-11
-1.24906e-08
-8.25276e-11
-1.24104e-08
-8.01889e-11
-1.23327e-08
-7.77132e-11
-1.22575e-08
-7.51584e-11
-1.21849e-08
-7.25737e-11
-1.21149e-08
-7.0001e-11
-1.20474e-08
-6.74745e-11
-1.19824e-08
-6.50219e-11
-1.19198e-08
-6.26655e-11
-1.18593e-08
-6.04218e-11
-1.1801e-08
-5.83022e-11
-1.17447e-08
-5.63146e-11
-1.16903e-08
-5.44629e-11
-1.16375e-08
-5.27484e-11
-1.15863e-08
-5.11688e-11
-1.15366e-08
-4.97197e-11
-1.14882e-08
-4.83943e-11
-1.1441e-08
-4.71843e-11
-1.1395e-08
-4.6078e-11
-1.13499e-08
-4.50622e-11
-1.13058e-08
-4.41178e-11
-1.12626e-08
-4.32179e-11
-1.12203e-08
-4.23152e-11
-1.11789e-08
-4.13181e-11
-1.11389e-08
-4.00448e-11
-1.11007e-08
-3.81442e-11
-1.10657e-08
-3.50078e-11
-1.1036e-08
-2.9754e-11
-1.10145e-08
-2.15018e-11
-1.10042e-08
-1.0266e-11
-1.10064e-08
2.16326e-12
-1.10138e-08
7.37661e-12
-1.10047e-08
-9.02052e-12
-1.09333e-08
-7.14115e-11
-1.07282e-08
-2.05136e-10
-1.02437e-08
-4.84463e-10
-1.30317e-09
-8.94055e-09
3.24535e-10
-3.57428e-10
1.24192e-09
-1.17808e-09
2.68261e-09
-1.9738e-09
4.54162e-09
-2.63289e-09
6.67996e-09
-3.08864e-09
8.93967e-09
-3.30714e-09
1.11585e-08
-3.28045e-09
1.31825e-08
-3.02217e-09
1.48771e-08
-2.563e-09
1.61341e-08
-1.94555e-09
1.6876e-08
-1.21877e-09
1.70567e-08
-4.32127e-10
1.66584e-08
3.69918e-10
1.56857e-08
1.15274e-09
1.41568e-08
1.89487e-09
1.20943e-08
2.59002e-09
9.51517e-09
3.24695e-09
6.42253e-09
3.88746e-09
2.79936e-09
4.54267e-09
-1.39428e-09
5.24818e-09
-6.22045e-09
6.03865e-09
-1.17592e-08
6.94294e-09
-1.8102e-08
7.98053e-09
-2.53438e-08
9.15988e-09
-3.35754e-08
1.04781e-08
-4.28754e-08
1.19218e-08
-5.3304e-08
1.34684e-08
-6.48966e-08
1.50877e-08
-7.76585e-08
1.67422e-08
-9.15608e-08
1.83888e-08
-1.06537e-07
1.99788e-08
-1.22479e-07
2.14597e-08
-1.39241e-07
2.27769e-08
-1.56636e-07
2.38762e-08
-1.74443e-07
2.4706e-08
-1.92413e-07
2.52207e-08
-2.10273e-07
2.53827e-08
-2.27742e-07
2.51648e-08
-2.44535e-07
2.45514e-08
-2.60374e-07
2.35391e-08
-2.74997e-07
2.21366e-08
-2.88167e-07
2.03642e-08
-2.99675e-07
1.82519e-08
-3.09347e-07
1.58384e-08
-3.17046e-07
1.31685e-08
-3.22671e-07
1.02917e-08
-3.26161e-07
7.25987e-09
-3.27487e-07
4.12559e-09
-3.26656e-07
9.40655e-10
-3.23711e-07
-2.24003e-09
-3.18718e-07
-5.35807e-09
-3.11807e-07
-8.37135e-09
-3.03081e-07
-1.12372e-08
-2.92677e-07
-1.39236e-08
-2.80743e-07
-1.64023e-08
-2.67436e-07
-1.86497e-08
-2.52921e-07
-2.06466e-08
-2.37368e-07
-2.23784e-08
-2.20951e-07
-2.38345e-08
-2.03846e-07
-2.50082e-08
-1.86227e-07
-2.58966e-08
-1.68268e-07
-2.65001e-08
-1.5014e-07
-2.68223e-08
-1.32011e-07
-2.68697e-08
-1.1404e-07
-2.66517e-08
-9.63821e-08
-2.61803e-08
-7.91837e-08
-2.54701e-08
-6.25819e-08
-2.45379e-08
-4.67032e-08
-2.34029e-08
-3.16628e-08
-2.20863e-08
-1.7563e-08
-2.06112e-08
-4.49267e-09
-1.90022e-08
7.4712e-09
-1.72857e-08
1.82753e-08
-1.54904e-08
2.78738e-08
-1.36399e-08
3.62439e-08
-1.17659e-08
4.3379e-08
-9.89647e-09
4.92889e-08
-8.05825e-09
5.39992e-08
-6.27606e-09
5.75509e-08
-4.5725e-09
5.99985e-08
-2.96754e-09
6.14093e-08
-1.47807e-09
6.18609e-08
-1.17655e-10
6.14387e-08
1.10453e-09
6.02361e-08
2.18067e-09
5.83481e-08
3.11021e-09
5.58723e-08
3.89285e-09
5.29053e-08
4.53285e-09
4.95405e-08
5.03744e-09
4.5866e-08
5.41639e-09
4.19632e-08
5.68148e-09
3.79056e-08
5.84588e-09
3.37576e-08
5.92359e-09
2.95743e-08
5.92878e-09
2.54016e-08
5.87521e-09
2.12765e-08
5.7757e-09
1.72279e-08
5.64169e-09
1.32778e-08
5.48284e-09
9.44224e-09
5.3069e-09
5.73289e-09
5.1197e-09
2.15802e-09
4.9253e-09
-1.27662e-09
4.72661e-09
-4.56647e-09
4.52476e-09
-7.7072e-09
4.31922e-09
-1.06948e-08
4.10964e-09
-1.35253e-08
3.89573e-09
-1.61951e-08
3.67734e-09
-1.87009e-08
3.4546e-09
-2.104e-08
3.228e-09
-2.32105e-08
2.99846e-09
-2.52117e-08
2.76726e-09
-2.70439e-08
2.53596e-09
-2.87088e-08
2.30633e-09
-3.02095e-08
2.08026e-09
-3.15504e-08
1.85961e-09
-3.2737e-08
1.64616e-09
-3.3776e-08
1.44152e-09
-3.46751e-08
1.24708e-09
-3.54426e-08
1.06397e-09
-3.60875e-08
8.93049e-10
-3.6619e-08
7.34894e-10
-3.70466e-08
5.89817e-10
-3.73798e-08
4.57887e-10
-3.76278e-08
3.38951e-10
-3.77998e-08
2.32668e-10
-3.79043e-08
1.38551e-10
-3.79496e-08
5.5995e-11
-3.79435e-08
-1.54588e-11
-3.78933e-08
-7.73724e-11
-3.78053e-08
-1.29614e-10
-3.76857e-08
-1.73383e-10
-3.75401e-08
-2.09483e-10
-3.73732e-08
-2.38683e-10
-3.71894e-08
-2.61727e-10
-3.69928e-08
-2.79331e-10
-3.67866e-08
-2.92166e-10
-3.65738e-08
-3.00866e-10
-3.6357e-08
-3.06012e-10
-3.61383e-08
-3.0814e-10
-3.59196e-08
-3.07736e-10
-3.57024e-08
-3.05239e-10
-3.54879e-08
-3.01039e-10
-3.5277e-08
-2.95489e-10
-3.50707e-08
-2.88893e-10
-3.48693e-08
-2.81523e-10
-3.46734e-08
-2.73616e-10
-3.44832e-08
-2.65374e-10
-3.42988e-08
-2.56973e-10
-3.41203e-08
-2.4856e-10
-3.39475e-08
-2.40258e-10
-3.37803e-08
-2.32168e-10
-3.36186e-08
-2.2437e-10
-3.34621e-08
-2.16924e-10
-3.33105e-08
-2.09878e-10
-3.31636e-08
-2.03261e-10
-3.3021e-08
-1.97094e-10
-3.28823e-08
-1.91384e-10
-3.27474e-08
-1.86132e-10
-3.26158e-08
-1.81328e-10
-3.24872e-08
-1.76957e-10
-3.23614e-08
-1.72997e-10
-3.2238e-08
-1.6942e-10
-3.21169e-08
-1.6619e-10
-3.19978e-08
-1.63256e-10
-3.18805e-08
-1.60539e-10
-3.17649e-08
-1.57898e-10
-3.16511e-08
-1.55049e-10
-3.15398e-08
-1.51424e-10
-3.1432e-08
-1.45946e-10
-3.13302e-08
-1.36797e-10
-3.12384e-08
-1.21487e-10
-3.1162e-08
-9.78884e-11
-3.11051e-08
-6.71637e-11
-3.1064e-08
-3.90218e-11
-3.10166e-08
-4.00256e-11
-3.09061e-08
-1.19532e-10
-3.0626e-08
-3.51496e-10
-3.00034e-08
-8.27666e-10
-2.8787e-08
-1.70093e-09
-3.43429e-09
-2.66559e-08
5.18756e-10
-8.76184e-10
1.87793e-09
-2.53726e-09
3.89077e-09
-3.98663e-09
6.36222e-09
-5.10434e-09
9.08448e-09
-5.81091e-09
1.18438e-08
-6.06646e-09
1.44309e-08
-5.86753e-09
1.66518e-08
-5.24309e-09
1.83372e-08
-4.24845e-09
1.93491e-08
-2.95738e-09
1.95834e-08
-1.45308e-09
1.89699e-08
1.81366e-10
1.74676e-08
1.87224e-09
1.50575e-08
3.56282e-09
1.17329e-08
5.2195e-09
7.48844e-09
6.83443e-09
2.30987e-09
8.42552e-09
-3.83463e-09
1.0032e-08
-1.0999e-08
1.1707e-08
-1.92597e-08
1.35089e-08
-2.87116e-08
1.54906e-08
-3.94595e-08
1.76909e-08
-5.16074e-08
2.01284e-08
-6.52459e-08
2.27984e-08
-8.04406e-08
2.56727e-08
-9.72204e-08
2.87016e-08
-1.15569e-07
3.1817e-08
-1.35417e-07
3.49355e-08
-1.56637e-07
3.79623e-08
-1.79043e-07
4.07948e-08
-2.02392e-07
4.33275e-08
-2.26388e-07
4.54565e-08
-2.50697e-07
4.70855e-08
-2.74952e-07
4.81308e-08
-2.98772e-07
4.85259e-08
-3.21776e-07
4.82249e-08
-3.43598e-07
4.72046e-08
-3.63897e-07
4.54644e-08
-3.82372e-07
4.30259e-08
-3.98763e-07
3.993e-08
-4.1286e-07
3.62343e-08
-4.24506e-07
3.20094e-08
-4.33589e-07
2.73354e-08
-4.40049e-07
2.2298e-08
-4.43866e-07
1.69857e-08
-4.45061e-07
1.1487e-08
-4.43689e-07
5.88762e-09
-4.39833e-07
2.69709e-10
-4.33615e-07
-5.27742e-09
-4.25181e-07
-1.06744e-08
-4.14675e-07
-1.58637e-08
-4.02251e-07
-2.07953e-08
-3.88066e-07
-2.54224e-08
-3.72284e-07
-2.97053e-08
-3.55076e-07
-3.36107e-08
-3.36614e-07
-3.71117e-08
-3.17073e-07
-4.0187e-08
-2.96631e-07
-4.2821e-08
-2.75462e-07
-4.50033e-08
-2.53742e-07
-4.67284e-08
-2.31643e-07
-4.79952e-08
-2.09336e-07
-4.8807e-08
-1.86988e-07
-4.9171e-08
-1.64759e-07
-4.90982e-08
-1.42808e-07
-4.86031e-08
-1.21284e-07
-4.77039e-08
-1.00332e-07
-4.64221e-08
-8.00877e-08
-4.47824e-08
-6.06778e-08
-4.28128e-08
-4.22199e-08
-4.05443e-08
-2.48206e-08
-3.80104e-08
-8.57564e-09
-3.52472e-08
6.43107e-09
-3.22924e-08
2.0127e-08
-2.91864e-08
3.24621e-08
-2.5975e-08
4.33996e-08
-2.27034e-08
5.29174e-08
-1.94142e-08
6.10082e-08
-1.61491e-08
6.76803e-08
-1.29482e-08
7.29572e-08
-9.84935e-09
7.68772e-08
-6.88755e-09
7.94932e-08
-4.09404e-09
8.08712e-08
-1.49572e-09
8.10902e-08
8.85567e-10
8.02382e-08
3.03262e-09
7.84134e-08
4.93501e-09
7.57203e-08
6.58598e-09
7.22678e-08
7.98531e-09
6.81668e-08
9.13851e-09
6.3527e-08
1.00562e-08
5.84552e-08
1.07533e-08
5.30524e-08
1.12487e-08
4.74123e-08
1.15636e-08
4.16198e-08
1.17213e-08
3.57499e-08
1.17452e-08
2.98672e-08
1.16584e-08
2.40263e-08
1.14825e-08
1.82725e-08
1.12366e-08
1.26425e-08
1.0937e-08
7.1656e-09
1.05966e-08
1.86538e-09
1.02255e-08
-3.23945e-09
9.83143e-09
-8.13398e-09
9.41929e-09
-1.2806e-08
8.99119e-09
-1.7245e-08
8.54864e-09
-2.14423e-08
8.09308e-09
-2.5391e-08
7.62603e-09
-2.90858e-08
7.14936e-09
-3.25232e-08
6.66541e-09
-3.57017e-08
6.17703e-09
-3.8622e-08
5.68754e-09
-4.12866e-08
5.20057e-09
-4.37002e-08
4.71996e-09
-4.58695e-08
4.24952e-09
-4.78028e-08
3.79292e-09
-4.95101e-08
3.35351e-09
-5.10029e-08
2.93426e-09
-5.22934e-08
2.53762e-09
-5.3395e-08
2.16551e-09
-5.43212e-08
1.81931e-09
-5.50862e-08
1.49985e-09
-5.57038e-08
1.20746e-09
-5.6188e-08
9.42038e-10
-5.65521e-08
7.03049e-10
-5.68091e-08
4.89651e-10
-5.69712e-08
3.0073e-10
-5.70502e-08
1.34982e-10
-5.70567e-08
-9.02697e-12
-5.7001e-08
-1.33038e-10
-5.68922e-08
-2.38447e-10
-5.67386e-08
-3.26958e-10
-5.65479e-08
-4.00185e-10
-5.63269e-08
-4.59675e-10
-5.60817e-08
-5.06915e-10
-5.58177e-08
-5.43317e-10
-5.55397e-08
-5.70214e-10
-5.52517e-08
-5.88846e-10
-5.49573e-08
-6.0036e-10
-5.46597e-08
-6.05809e-10
-5.43612e-08
-6.06155e-10
-5.40642e-08
-6.02264e-10
-5.37703e-08
-5.94915e-10
-5.3481e-08
-5.84802e-10
-5.31974e-08
-5.72539e-10
-5.29202e-08
-5.58668e-10
-5.26502e-08
-5.4366e-10
-5.23876e-08
-5.27924e-10
-5.21328e-08
-5.11813e-10
-5.18857e-08
-4.95623e-10
-5.16464e-08
-4.79603e-10
-5.14146e-08
-4.63957e-10
-5.11901e-08
-4.48848e-10
-5.09727e-08
-4.34406e-10
-5.07618e-08
-4.20726e-10
-5.05572e-08
-4.07876e-10
-5.03584e-08
-3.95904e-10
-5.01649e-08
-3.84832e-10
-4.99764e-08
-3.74669e-10
-4.97923e-08
-3.65408e-10
-4.96122e-08
-3.57031e-10
-4.94357e-08
-3.49509e-10
-4.92623e-08
-3.42802e-10
-4.90917e-08
-3.36862e-10
-4.89233e-08
-3.31613e-10
-4.87569e-08
-3.26933e-10
-4.85922e-08
-3.22585e-10
-4.84292e-08
-3.18084e-10
-4.82682e-08
-3.12445e-10
-4.81103e-08
-3.03811e-10
-4.7958e-08
-2.8914e-10
-4.78149e-08
-2.64522e-10
-4.76855e-08
-2.27361e-10
-4.75706e-08
-1.82058e-10
-4.74594e-08
-1.50224e-10
-4.73156e-08
-1.8376e-10
-4.70611e-08
-3.74048e-10
-4.656e-08
-8.52642e-10
-4.56104e-08
-1.77724e-09
-4.40212e-08
-3.29015e-09
-5.69795e-09
-4.17575e-08
5.99082e-10
-1.47527e-09
2.13388e-09
-4.07206e-09
4.34282e-09
-6.19557e-09
6.95927e-09
-7.72079e-09
9.71605e-09
-8.56768e-09
1.23532e-08
-8.7036e-09
1.46272e-08
-8.14154e-09
1.63198e-08
-6.93569e-09
1.72446e-08
-5.17322e-09
1.72505e-08
-2.96331e-09
1.6222e-08
-4.24564e-10
1.4075e-08
2.32831e-09
1.07507e-08
5.19661e-09
6.20568e-09
8.1078e-09
4.01992e-10
1.10232e-08
-6.70298e-09
1.39394e-08
-1.51645e-08
1.68871e-08
-2.50553e-08
1.99227e-08
-3.64646e-08
2.31164e-08
-4.94924e-08
2.65367e-08
-6.42378e-08
3.0236e-08
-8.07854e-08
3.42384e-08
-9.91887e-08
3.85318e-08
-1.19456e-07
4.30659e-08
-1.41538e-07
4.77542e-08
-1.65316e-07
5.24797e-08
-1.90601e-07
5.71018e-08
-2.1713e-07
6.14649e-08
-2.44575e-07
6.54071e-08
-2.72549e-07
6.87695e-08
-3.00627e-07
7.14054e-08
-3.28359e-07
7.31886e-08
-3.55294e-07
7.40201e-08
-3.80997e-07
7.38335e-08
-4.05067e-07
7.25967e-08
-4.27155e-07
7.03121e-08
-4.46964e-07
6.70143e-08
-4.64265e-07
6.27655e-08
-4.7889e-07
5.76507e-08
-4.90732e-07
5.17718e-08
-4.9974e-07
4.5242e-08
-5.05911e-07
3.81803e-08
-5.09283e-07
3.07078e-08
-5.09929e-07
2.29438e-08
-5.07946e-07
1.5003e-08
-5.03453e-07
6.99369e-09
-4.96584e-07
-9.81383e-10
-4.875e-07
-8.81465e-09
-4.76355e-07
-1.64218e-08
-4.63291e-07
-2.37383e-08
-4.48451e-07
-3.07039e-08
-4.31985e-07
-3.7261e-08
-4.14048e-07
-4.33595e-08
-3.94797e-07
-4.89566e-08
-3.74391e-07
-5.40169e-08
-3.52991e-07
-5.85118e-08
-3.30758e-07
-6.24194e-08
-3.07855e-07
-6.5724e-08
-2.84443e-07
-6.84157e-08
-2.60681e-07
-7.04904e-08
-2.36727e-07
-7.19489e-08
-2.12737e-07
-7.27972e-08
-1.88862e-07
-7.30458e-08
-1.6525e-07
-7.27098e-08
-1.42045e-07
-7.18087e-08
-1.19382e-07
-7.03662e-08
-9.73941e-08
-6.84105e-08
-7.6203e-08
-6.59735e-08
-5.59244e-08
-6.30915e-08
-3.66642e-08
-5.98045e-08
-1.85193e-08
-5.61552e-08
-1.57669e-09
-5.21898e-08
1.40881e-08
-4.79572e-08
2.84171e-08
-4.35154e-08
4.13659e-08
-3.89238e-08
5.29006e-08
-3.42381e-08
6.29996e-08
-2.95132e-08
7.1654e-08
-2.48036e-08
7.88676e-08
-2.01617e-08
8.46562e-08
-1.56379e-08
8.90479e-08
-1.12793e-08
9.20829e-08
-7.12899e-09
9.38124e-08
-3.22521e-09
9.42989e-08
3.99047e-10
9.36147e-08
3.71684e-09
9.18421e-08
6.70758e-09
8.90722e-08
9.35586e-09
8.54035e-08
1.1654e-08
8.09403e-08
1.36018e-08
7.57905e-08
1.5206e-08
7.00637e-08
1.64801e-08
6.38687e-08
1.74436e-08
5.73112e-08
1.81212e-08
5.04914e-08
1.8541e-08
4.35027e-08
1.87339e-08
3.64296e-08
1.87315e-08
2.93476e-08
1.85646e-08
2.23223e-08
1.8262e-08
1.54099e-08
1.78493e-08
8.65784e-09
1.73486e-08
2.10581e-09