/*--------------------------------*- C++ -*----------------------------------*\
  =========                 |
  \\      /  F ield         | OpenFOAM: The Open Source CFD Toolbox
   \\    /   O peration     | Website:  https://openfoam.org
    \\  /    A nd           | Version:  8
     \\/     M anipulation  |
\*---------------------------------------------------------------------------*/
FoamFile
{
    version     2.0;
    format      ascii;
    class       volVectorField;
    location    "0.36";
    object      U;
}
// * * * * * * * * * * * * * * * * * * * * * * * * * * * * * * * * * * * * * //

dimensions      [0 1 -1 0 0 0 0];

internalField   nonuniform List<vector> 
12225
(
(1.91329e-05 -3.01652e-06 0)
(8.20937e-05 -2.79786e-06 0)
(0.000127091 -1.98476e-06 0)
(0.000147193 -1.4565e-06 0)
(0.000166063 -1.97148e-06 0)
(0.000215377 -3.83893e-06 0)
(0.000329853 -7.4313e-06 0)
(0.000547002 -1.30639e-05 0)
(0.000903086 -2.08212e-05 0)
(0.00142475 -3.02485e-05 0)
(0.00211784 -4.02202e-05 0)
(0.00295843 -4.9108e-05 0)
(0.00389206 -5.54539e-05 0)
(0.0048438 -5.899e-05 0)
(0.0057409 -6.12129e-05 0)
(0.00653619 -5.65498e-05 0)
(0.00725375 -0.000117144 0)
(0.0047456 0.00163238 0)
(5.07364e-05 -2.17212e-05 0)
(0.000217023 -2.50572e-05 0)
(0.000325487 -1.48036e-05 0)
(0.000367135 -9.18961e-06 0)
(0.000410111 -1.73493e-05 0)
(0.000545146 -4.36187e-05 0)
(0.000870934 -9.18763e-05 0)
(0.00149135 -0.000165081 0)
(0.00250306 -0.000262807 0)
(0.00397232 -0.00037815 0)
(0.0059054 -0.000496298 0)
(0.00822564 -0.000596341 0)
(0.01077 -0.000656882 0)
(0.0133088 -0.000663255 0)
(0.0155808 -0.000607281 0)
(0.0172629 -0.000436066 0)
(0.0179358 0.000166182 0)
(0.0124765 0.00446763 0)
(7.63855e-05 -5.84083e-05 0)
(0.000324811 -6.51881e-05 0)
(0.000474326 -3.57406e-05 0)
(0.000521241 -2.09598e-05 0)
(0.000575618 -4.63657e-05 0)
(0.000783537 -0.000124654 0)
(0.00130261 -0.000266228 0)
(0.00229496 -0.000478073 0)
(0.00390637 -0.000756978 0)
(0.00623024 -0.00108151 0)
(0.00926342 -0.00140843 0)
(0.0128725 -0.00167743 0)
(0.0167869 -0.00182414 0)
(0.0206187 -0.00179356 0)
(0.0238909 -0.00152719 0)
(0.0259424 -0.000835972 0)
(0.0258648 0.00113597 0)
(0.0188843 0.00849368 0)
(9.54314e-05 -0.000112909 0)
(0.000403094 -0.00012212 0)
(0.000573693 -6.27718e-05 0)
(0.00061185 -3.48361e-05 0)
(0.00066507 -8.87734e-05 0)
(0.000929141 -0.000250324 0)
(0.00161337 -0.000539193 0)
(0.00292799 -0.000966954 0)
(0.00505537 -0.00152411 0)
(0.00810384 -0.00216515 0)
(0.0120531 -0.00280221 0)
(0.0167131 -0.00331358 0)
(0.0217128 -0.00356546 0)
(0.0265163 -0.00343042 0)
(0.0304416 -0.00275438 0)
(0.0325519 -0.00115036 0)
(0.0316783 0.00274009 0)
(0.0242202 0.0131777 0)
(0.000108236 -0.00018172 0)
(0.000453702 -0.000191241 0)
(0.000630349 -9.11916e-05 0)
(0.000650409 -4.63127e-05 0)
(0.00069224 -0.000140266 0)
(0.000993565 -0.000416274 0)
(0.00180602 -0.000905313 0)
(0.00337615 -0.00162291 0)
(0.00590991 -0.00254856 0)
(0.00951953 -0.00360269 0)
(0.0141631 -0.00463702 0)
(0.0195991 -0.00544741 0)
(0.0253721 -0.00580461 0)
(0.0308245 -0.00547695 0)
(0.0351153 -0.00417979 0)
(0.0371515 -0.00132223 0)
(0.0357397 0.00474915 0)
(0.028524 0.0179533 0)
(0.000115817 -0.000261887 0)
(0.000482982 -0.00026939 0)
(0.000658539 -0.000118496 0)
(0.000658681 -5.29207e-05 0)
(0.000683879 -0.000197564 0)
(0.00100387 -0.000617239 0)
(0.0019013 -0.00135532 0)
(0.00364608 -0.00242942 0)
(0.00645492 -0.00380258 0)
(0.0104351 -0.00535135 0)
(0.0155224 -0.00685291 0)
(0.0214352 -0.00800221 0)
(0.0276582 -0.00845186 0)
(0.0334534 -0.00784084 0)
(0.0378886 -0.00573854 0)
(0.0398368 -0.00139099 0)
(0.0382355 0.00692027 0)
(0.0317462 0.0225059 0)
(0.000119604 -0.000351411 0)
(0.000500856 -0.00035519 0)
(0.00067888 -0.000144394 0)
(0.000667586 -5.39244e-05 0)
(0.000678715 -0.000257686 0)
(0.00100199 -0.000845786 0)
(0.00193811 -0.00187412 0)
(0.00376674 -0.00335977 0)
(0.00670345 -0.00524342 0)
(0.0108441 -0.00734923 0)
(0.016106 -0.00936851 0)
(0.022184 -0.0108812 0)
(0.0285349 -0.0114053 0)
(0.0343909 -0.0104358 0)
(0.0388035 -0.0074004 0)
(0.0407096 -0.00144575 0)
(0.0392488 0.00903324 0)
(0.0337998 0.0266439 0)
(0.000121359 -0.00044989 0)
(0.000519991 -0.000450604 0)
(0.000716939 -0.000172721 0)
(0.000715332 -5.23356e-05 0)
(0.000725398 -0.000319648 0)
(0.00104307 -0.00109319 0)
(0.0019728 -0.00244077 0)
(0.0037904 -0.00437547 0)
(0.00669975 -0.00681036 0)
(0.0107818 -0.00951093 0)
(0.0159424 -0.0120757 0)
(0.021874 -0.0139619 0)
(0.0280421 -0.0145448 0)
(0.0337024 -0.0131728 0)
(0.037959 -0.00915045 0)
(0.0398788 -0.0015903 0)
(0.0388136 0.0108879 0)
(0.0345897 0.0301974 0)
(0.000122966 -0.00055929 0)
(0.000554079 -0.000562411 0)
(0.000800071 -0.000213129 0)
(0.000843004 -5.66492e-05 0)
(0.000877304 -0.000386052 0)
(0.00118993 -0.00135075 0)
(0.0020742 -0.00302923 0)
(0.00378888 -0.00542681 0)
(0.00651732 -0.00842504 0)
(0.0103245 -0.0117279 0)
(0.0151147 -0.0148402 0)
(0.0206013 -0.0170962 0)
(0.0262953 -0.0177307 0)
(0.0315258 -0.0159534 0)
(0.0355055 -0.0109718 0)
(0.0374676 -0.00191732 0)
(0.0369529 0.0123145 0)
(0.034034 0.0330107 0)
(0.000126083 -0.000684467 0)
(0.00061527 -0.000703297 0)
(0.000952433 -0.0002824 0)
(0.00108739 -8.2347e-05 0)
(0.00118362 -0.000464693 0)
(0.00150327 -0.00161149 0)
(0.00231359 -0.00361012 0)
(0.00384408 -0.00645485 0)
(0.00625058 -0.00999379 0)
(0.00958293 -0.0138711 0)
(0.0137552 -0.0175036 0)
(0.0185235 -0.0201119 0)
(0.0234786 -0.0208017 0)
(0.0280644 -0.0186613 0)
(0.0316425 -0.0128278 0)
(0.0336262 -0.00248586 0)
(0.0337119 0.0131892 0)
(0.0320865 0.0349558 0)
(0.000131859 -0.000834422 0)
(0.000710885 -0.000893378 0)
(0.00118836 -0.000406474 0)
(0.00147118 -0.000154594 0)
(0.00167697 -0.000571977 0)
(0.0020273 -0.0018744 0)
(0.00274918 -0.00415616 0)
(0.00403215 -0.00739802 0)
(0.00599926 -0.0114155 0)
(0.00868716 -0.0157998 0)
(0.0120298 -0.019893 0)
(0.0158455 -0.0228205 0)
(0.0198313 -0.0235802 0)
(0.0235766 -0.021162 0)
(0.0266162 -0.014656 0)
(0.0285442 -0.00331435 0)
(0.0291824 0.0134366 0)
(0.0287552 0.0359343 0)
(0.000139654 -0.001005 0)
(0.000828308 -0.00113558 0)
(0.0014775 -0.000600427 0)
(0.00194711 -0.00029369 0)
(0.00230028 -0.000718406 0)
(0.00270804 -0.00212181 0)
(0.00334888 -0.00460305 0)
(0.00436763 -0.00812987 0)
(0.00585393 -0.0124918 0)
(0.00783402 -0.0172424 0)
(0.010267 -0.0216736 0)
(0.0130402 -0.0248474 0)
(0.0159643 -0.0256886 0)
(0.0187794 -0.0231211 0)
(0.02119 -0.0162096 0)
(0.0229486 -0.00426744 0)
(0.0239737 0.0130927 0)
(0.0244922 0.0359209 0)
(0.00014919 -0.00121062 0)
(0.000961833 -0.00145199 0)
(0.00180787 -0.000885528 0)
(0.00249813 -0.000519605 0)
(0.00303342 -0.000925539 0)
(0.0035254 -0.00238145 0)
(0.00409672 -0.00499019 0)
(0.00484284 -0.00870706 0)
(0.0058183 -0.013301 0)
(0.0070396 -0.0183006 0)
(0.00849299 -0.0229686 0)
(0.010138 -0.0263301 0)
(0.0119035 -0.0272653 0)
(0.0136844 -0.0246557 0)
(0.015356 -0.0175518 0)
(0.0168225 -0.00531638 0)
(0.018084 0.0122954 0)
(0.0193581 0.0351211 0)
(0.000160442 -0.0014971 0)
(0.0011161 -0.001931 0)
(0.00219893 -0.00135845 0)
(0.00316626 -0.000921121 0)
(0.0039421 -0.00126618 0)
(0.00456199 -0.00270503 0)
(0.00507801 -0.00534401 0)
(0.00552551 -0.00912662 0)
(0.00591798 -0.0138076 0)
(0.00626067 -0.0189068 0)
(0.00656958 -0.0236834 0)
(0.00688318 -0.0271587 0)
(0.00725979 -0.0282025 0)
(0.0077647 -0.0256812 0)
(0.00845997 -0.0186422 0)
(0.00941374 -0.00648483 0)
(0.0107162 0.0109369 0)
(0.0125707 0.033311 0)
(0.000168985 -0.00189227 0)
(0.00125357 -0.00264323 0)
(0.00257455 -0.00211607 0)
(0.0038424 -0.00160191 0)
(0.00489753 -0.00182677 0)
(0.00568646 -0.00313502 0)
(0.00617884 -0.00563674 0)
(0.00634188 -0.00926765 0)
(0.00614368 -0.0137813 0)
(0.00557529 -0.0187145 0)
(0.00467835 -0.0233634 0)
(0.00356404 -0.0267974 0)
(0.00241231 -0.0279299 0)
(0.00145269 -0.0256569 0)
(0.000931995 -0.0190409 0)
(0.00108561 -0.00749782 0)
(0.00211153 0.00908111 0)
(0.00421255 0.0303201 0)
(0.000165387 -0.00240915 0)
(0.00129836 -0.00364063 0)
(0.00277513 -0.00324755 0)
(0.00428484 -0.00267179 0)
(0.00559515 -0.00271083 0)
(0.00656321 -0.00373639 0)
(0.00707408 -0.00586239 0)
(0.007026 -0.00902534 0)
(0.00634061 -0.012997 0)
(0.0049894 -0.0173656 0)
(0.00302505 -0.0215157 0)
(0.000605666 -0.0246316 0)
(-0.00200461 -0.0257432 0)
(-0.00445017 -0.0238432 0)
(-0.00633071 -0.0180475 0)
(-0.00725973 -0.0077744 0)
(-0.00691891 0.00711933 0)
(-0.0050696 0.0263026 0)
(0.000136703 -0.00301225 0)
(0.00115351 -0.00488874 0)
(0.00258867 -0.00475715 0)
(0.00415647 -0.00417731 0)
(0.00558875 -0.00399132 0)
(0.00667631 -0.00458328 0)
(0.0072362 -0.00606963 0)
(0.00711012 -0.00839829 0)
(0.00617965 -0.0113809 0)
(0.00439077 -0.0146913 0)
(0.00178307 -0.0178525 0)
(-0.00148454 -0.0202306 0)
(-0.00512715 -0.0210553 0)
(-0.0087412 -0.019502 0)
(-0.0118494 -0.0148048 0)
(-0.0139672 -0.00640412 0)
(-0.0146679 0.00592272 0)
(-0.013638 0.0219909 0)
(7.5139e-05 -0.00357887 0)
(0.000772483 -0.00617927 0)
(0.00189719 -0.00644922 0)
(0.00324065 -0.00598049 0)
(0.00455536 -0.00560624 0)
(0.00561321 -0.00569653 0)
(0.00620447 -0.0063647 0)
(0.00614755 -0.00757663 0)
(0.00530438 -0.0091977 0)
(0.00359899 -0.0110057 0)
(0.00103894 -0.0126881 0)
(-0.00226303 -0.013835 0)
(-0.00607569 -0.0139386 0)
(-0.0100501 -0.0124376 0)
(-0.0137459 -0.00877432 0)
(-0.0166831 -0.00248512 0)
(-0.0183923 0.00670123 0)
(-0.0185093 0.0187832 0)
(-9.92991e-06 -0.00391662 0)
(0.000241595 -0.00714567 0)
(0.000848051 -0.00791294 0)
(0.00170802 -0.00770813 0)
(0.00264406 -0.00728528 0)
(0.0034641 -0.00697091 0)
(0.00398715 -0.00686701 0)
(0.00405801 -0.00695774 0)
(0.00355808 -0.00715955 0)
(0.00241513 -0.00734227 0)
(0.000613855 -0.00733618 0)
(-0.00179335 -0.00693302 0)
(-0.00467278 -0.00588283 0)
(-0.00780563 -0.00390695 0)
(-0.0108956 -0.000717627 0)
(-0.0135919 0.00394884 0)
(-0.015523 0.0102938 0)
(-0.0163561 0.0184093 0)
(-7.19332e-05 -0.00390081 0)
(-0.000214946 -0.0074161 0)
(-0.000144862 -0.00855793 0)
(0.000132273 -0.00863382 0)
(0.00052605 -0.00829719 0)
(0.000910121 -0.00783526 0)
(0.00116485 -0.00734737 0)
(0.00119242 -0.00683675 0)
(0.000922669 -0.00625473 0)
(0.000316131 -0.00552238 0)
(-0.000632863 -0.00454139 0)
(-0.00189441 -0.00320023 0)
(-0.00339702 -0.00137645 0)
(-0.00502488 0.00105578 0)
(-0.00661976 0.00421769 0)
(-0.00798814 0.00821545 0)
(-0.00891333 0.0131288 0)
(-0.00918781 0.0189967 0)
(-0.000126639 -0.0036574 0)
(-0.000665325 -0.00714866 0)
(-0.00116473 -0.00845157 0)
(-0.00153503 -0.00869583 0)
(-0.00177999 -0.00844997 0)
(-0.00196004 -0.00797441 0)
(-0.00213801 -0.00736995 0)
(-0.00236312 -0.00665439 0)
(-0.00266686 -0.00580125 0)
(-0.00306187 -0.00475985 0)
(-0.00354108 -0.00346701 0)
(-0.00407744 -0.00185446 0)
(-0.00462283 0.000146939 0)
(-0.00510718 0.0026015 0)
(-0.00544025 0.0055648 0)
(-0.00551471 0.00907825 0)
(-0.00521179 0.0131648 0)
(-0.00441798 0.017825 0)
(-0.000186109 -0.00321566 0)
(-0.00117214 -0.0064244 0)
(-0.00231403 -0.00772265 0)
(-0.0034147 -0.00804972 0)
(-0.00438951 -0.00788969 0)
(-0.00523752 -0.00747549 0)
(-0.00597311 -0.00690466 0)
(-0.00660841 -0.00620228 0)
(-0.00714784 -0.00535451 0)
(-0.00758601 -0.00432681 0)
(-0.00790683 -0.00307515 0)
(-0.00808358 -0.00155332 0)
(-0.00807919 0.000282056 0)
(-0.00784754 0.00246739 0)
(-0.0073342 0.00502896 0)
(-0.00647895 0.00798016 0)
(-0.00521897 0.0113198 0)
(-0.00349448 0.0150315 0)
(-0.000235528 -0.00262278 0)
(-0.00162794 -0.00535009 0)
(-0.00335612 -0.00651724 0)
(-0.00512295 -0.00685762 0)
(-0.00676939 -0.00676925 0)
(-0.00824659 -0.0064524 0)
(-0.00953463 -0.00599428 0)
(-0.0106221 -0.00542035 0)
(-0.0114975 -0.00472274 0)
(-0.0121455 -0.0038762 0)
(-0.0125446 -0.00284792 0)
(-0.012668 -0.00160407 0)
(-0.0124836 -0.000114277 0)
(-0.0119564 0.00164529 0)
(-0.0110497 0.00368885 0)
(-0.00972738 0.00601975 0)
(-0.00795545 0.0086295 0)
(-0.00570197 0.0114981 0)
(-0.000258656 -0.00196681 0)
(-0.00190931 -0.00411157 0)
(-0.0040334 -0.00507332 0)
(-0.00625944 -0.00537946 0)
(-0.00837921 -0.00534333 0)
(-0.0103136 -0.00512792 0)
(-0.0120233 -0.00480474 0)
(-0.0134853 -0.00439521 0)
(-0.014681 -0.00389389 0)
(-0.0155906 -0.0032816 0)
(-0.0161902 -0.00253334 0)
(-0.0164519 -0.00162348 0)
(-0.0163455 -0.000529371 0)
(-0.0158397 0.000766316 0)
(-0.0149046 0.00227328 0)
(-0.0135142 0.00399238 0)
(-0.0116475 0.00591523 0)
(-0.00928542 0.00802417 0)
(-0.000248678 -0.001343 0)
(-0.00195643 -0.00290096 0)
(-0.00422147 -0.00362971 0)
(-0.00663164 -0.00387423 0)
(-0.00895736 -0.0038694 0)
(-0.0111063 -0.00373908 0)
(-0.0130326 -0.00353672 0)
(-0.0147106 -0.00327795 0)
(-0.0161208 -0.00295845 0)
(-0.0172424 -0.00256388 0)
(-0.0180512 -0.00207567 0)
(-0.0185191 -0.00147483 0)
(-0.0186158 -0.000744458 0)
(-0.0183108 0.000128343 0)
(-0.0175757 0.00115131 0)
(-0.0163869 0.00232552 0)
(-0.0147271 0.00364523 0)
(-0.0125822 0.00509753 0)
(-0.000209191 -0.000821076 0)
(-0.00178256 -0.00185681 0)
(-0.00394163 -0.00235932 0)
(-0.00626656 -0.00253219 0)
(-0.00853153 -0.00254088 0)
(-0.0106456 -0.00247147 0)
(-0.0125655 -0.00235989 0)
(-0.014269 -0.00221607 0)
(-0.015739 -0.0020366 0)
(-0.016957 -0.00181143 0)
(-0.0179 -0.00152777 0)
(-0.0185413 -0.00117241 0)
(-0.0188512 -0.000733524 0)
(-0.0187999 -0.00020182 0)
(-0.018359 0.000428677 0)
(-0.0175046 0.00115972 0)
(-0.0162191 0.00198837 0)
(-0.0144892 0.00290671 0)
(-0.000150592 -0.000433958 0)
(-0.00144659 -0.0010482 0)
(-0.00330224 -0.00135407 0)
(-0.00532067 -0.00145926 0)
(-0.0073007 -0.00146976 0)
(-0.00916399 -0.00143829 0)
(-0.0108761 -0.00138584 0)
(-0.012421 -0.00131778 0)
(-0.0137859 -0.00123168 0)
(-0.014956 -0.00112131 0)
(-0.015912 -0.000978825 0)
(-0.01663 -0.000796098 0)
(-0.0170833 -0.000565691 0)
(-0.0172443 -0.000281595 0)
(-0.017086 6.02773e-05 0)
(-0.0165849 0.000461797 0)
(-0.0157227 0.00092198 0)
(-0.0144859 0.00143695 0)
(-8.63364e-05 -0.000183329 0)
(-0.00102266 -0.000489215 0)
(-0.00243751 -0.000642701 0)
(-0.00398883 -0.000694125 0)
(-0.00551744 -0.000701029 0)
(-0.00696537 -0.000689815 0)
(-0.00830967 -0.000670444 0)
(-0.00954082 -0.000645201 0)
(-0.0106512 -0.000612676 0)
(-0.0116303 -0.000569679 0)
(-0.0124638 -0.000512254 0)
(-0.013133 -0.000436276 0)
(-0.0136165 -0.000337893 0)
(-0.0138913 -0.000213874 0)
(-0.0139348 -6.18646e-05 0)
(-0.0137261 0.000119202 0)
(-0.013248 0.000329527 0)
(-0.012488 0.000567619 0)
(-3.08307e-05 -5.01812e-05 0)
(-0.000580838 -0.000160585 0)
(-0.00146988 -0.000214642 0)
(-0.00244968 -0.000231742 0)
(-0.0034171 -0.000234527 0)
(-0.0043382 -0.000232149 0)
(-0.00520125 -0.000227837 0)
(-0.00600232 -0.000222209 0)
(-0.00673794 -0.000214684 0)
(-0.00740235 -0.00020411 0)
(-0.00798672 -0.000189083 0)
(-0.00847926 -0.000168129 0)
(-0.0088659 -0.000139844 0)
(-0.00913118 -0.000102998 0)
(-0.00925952 -5.66325e-05 0)
(-0.00923597 -4.69646e-07 0)
(-0.00904741 6.60019e-05 0)
(-0.00868448 0.000142335 0)
(1.08335e-06 -1.13743e-06 0)
(-0.000177546 -1.37282e-05 0)
(-0.000494133 -1.81788e-05 0)
(-0.000843617 -1.9458e-05 0)
(-0.00118868 -1.98453e-05 0)
(-0.00151881 -2.00089e-05 0)
(-0.0018311 -2.02007e-05 0)
(-0.00212504 -2.04351e-05 0)
(-0.00239996 -2.06435e-05 0)
(-0.00265418 -2.07152e-05 0)
(-0.00288471 -2.05164e-05 0)
(-0.00308735 -1.99047e-05 0)
(-0.00325693 -1.87328e-05 0)
(-0.00338758 -1.68608e-05 0)
(-0.00347329 -1.4187e-05 0)
(-0.00350799 -1.06812e-05 0)
(-0.00348608 -6.1445e-06 0)
(-0.00340366 -5.74941e-07 0)
(-2.07415e-05 5.9971e-05 -5.49503e-22)
(9.90896e-05 6.09268e-06 6.99451e-22)
(0.000449749 -0.00010475 0)
(0.00103743 -0.000212121 0)
(0.00181708 -0.000293047 0)
(0.00272112 -0.000340016 -6.95608e-22)
(0.00367524 -0.000352677 0)
(0.00460664 -0.000335061 0)
(0.00545027 -0.000294015 0)
(0.00615367 -0.000237897 0)
(0.00667997 -0.000175415 7.02894e-22)
(0.00700879 -0.000114631 0)
(0.0071354 -6.21468e-05 0)
(0.00706788 -2.253e-05 0)
(0.00682358 2.10952e-06 0)
(0.00642419 1.1928e-05 7.22073e-22)
(0.00589077 9.18868e-06 0)
(0.00523931 -2.18671e-06 0)
(0.00447709 -1.72358e-05 0)
(0.00360045 -3.06783e-05 0)
(0.00259414 -3.75928e-05 0)
(0.00143214 -3.37988e-05 0)
(7.97416e-05 -1.62861e-05 0)
(-0.00150377 1.67858e-05 7.79404e-22)
(-0.00336192 6.63335e-05 -7.87957e-22)
(-0.00553822 0.000132699 7.97285e-22)
(-0.0080739 0.000215888 8.07293e-22)
(-0.0110059 0.000315729 0)
(-0.0143654 0.000431946 0)
(-0.0181764 0.00056409 -8.39705e-22)
(-0.0224538 0.000711388 -8.50488e-22)
(-0.0272024 0.000872563 0)
(-0.0324151 0.00104565 0)
(-0.038071 0.00122784 -8.77784e-22)
(-0.0441349 0.00141539 0)
(-0.0505561 0.00160359 0)
(-0.0572687 0.00178676 8.8742e-22)
(-0.064192 0.00195843 0)
(-0.0712322 0.00211153 8.76863e-22)
(-0.078284 0.00223875 1.72986e-21)
(-0.085234 0.00233299 0)
(-0.0919633 0.00238786 0)
(-0.0983514 0.00239812 0)
(-0.10428 0.00236016 0)
(-0.109636 0.0022723 0)
(-0.114316 0.002135 1.35879e-21)
(-0.118228 0.00195095 1.25753e-21)
(-0.121294 0.0017246 1.146e-21)
(-0.123452 0.00146074 0)
(-0.124658 0.00116341 -8.95899e-22)
(-0.124891 0.000840898 0)
(-0.124133 0.000510344 6.16925e-22)
(-0.122394 0.000172791 4.70742e-22)
(-0.119712 -0.000162028 0)
(-0.116132 -0.000484536 0)
(-0.111714 -0.00078709 0)
(-0.10653 -0.00106352 -1.13074e-22)
(-0.10066 -0.0013089 0)
(-0.0941946 -0.0015195 0)
(-0.0872273 -0.00169277 0)
(-0.0798572 -0.00182726 0)
(-0.0721849 -0.00192256 0)
(-0.0643116 -0.00197917 0)
(-0.0563373 -0.0019984 0)
(-0.0483594 -0.0019823 0)
(-0.0404715 -0.00193353 9.34335e-22)
(-0.032762 -0.00185526 0)
(-0.0253127 -0.00175109 0)
(-0.0181985 -0.00162493 -9.43698e-22)
(-0.0114859 -0.00148091 -9.16566e-22)
(-0.0052319 -0.00132318 0)
(0.000516298 -0.00115628 8.23162e-22)
(0.00572048 -0.000984781 -7.54989e-22)
(0.0103549 -0.000809628 0)
(0.0144034 -0.000637732 5.90914e-22)
(0.0178596 -0.00047237 0)
(0.0207261 -0.000317134 0)
(0.0230167 -0.000174925 -3.30537e-22)
(0.0247544 -4.75993e-05 0)
(0.0259698 6.37025e-05 1.63145e-22)
(0.0266998 0.00015846 0)
(0.0269866 0.000236715 -9.59638e-24)
(0.0268756 0.000299002 6.04423e-23)
(0.0264147 0.000346262 1.25449e-22)
(0.0256526 0.000379576 3.70499e-22)
(0.0246373 0.00040047 -4.79589e-22)
(0.0234156 0.00041048 0)
(0.0220316 0.00041129 0)
(0.0205264 0.000404599 0)
(0.018937 0.000392054 -8.15866e-22)
(0.0172959 0.0003752 -8.7747e-22)
(0.0156311 0.000355443 9.31433e-22)
(0.0139659 0.000334025 0)
(0.0123186 0.000312008 -1.01941e-21)
(0.0107037 0.000290262 -1.05487e-21)
(0.00913121 0.000269459 -1.08555e-21)
(0.00760807 0.000250082 0)
(0.00613826 0.000232427 0)
(0.00472361 0.000216624 0)
(0.00336443 0.000202653 -1.17131e-21)
(0.00206005 0.000190371 0)
(0.00080935 0.000179544 0)
(-0.000388998 0.000169842 1.2058e-21)
(-0.00153594 0.000160941 0)
(-0.00263159 0.000152649 0)
(-0.0036756 0.000144739 1.21437e-21)
(-0.00466723 0.000137002 0)
(-0.00560544 0.000129273 0)
(-0.00648898 0.00012144 -1.20735e-21)
(-0.00731661 0.000113445 -1.20176e-21)
(-0.00808722 0.000105274 0)
(-0.00879999 9.69531e-05 1.18604e-21)
(-0.00945448 8.854e-05 0)
(-0.0100508 8.01121e-05 -1.16476e-21)
(-0.0105894 7.17589e-05 0)
(-0.0110715 6.35739e-05 -1.13872e-21)
(-0.0114987 5.56479e-05 -1.12421e-21)
(-0.0118731 4.80633e-05 0)
(-0.0121972 4.08912e-05 0)
(-0.0124739 3.41881e-05 0)
(-0.0127062 2.79959e-05 0)
(-0.0128976 2.23409e-05 0)
(-0.0130515 1.72345e-05 0)
(-0.0131712 1.26741e-05 0)
(-0.0132602 8.64314e-06 -9.88507e-22)
(-0.0133219 5.10051e-06 9.70728e-22)
(-0.0133595 1.97964e-06 0)
(-0.0133763 -5.53888e-07 0)
(-0.0133748 -2.38639e-06 0)
(-0.0133576 -4.01268e-06 0)
(-0.0133275 -5.40722e-06 1.76882e-21)
(-0.0132867 -6.50864e-06 0)
(-0.0132371 -7.33277e-06 -1.70367e-21)
(-0.0131806 -7.91612e-06 1.6721e-21)
(-0.0131188 -8.29365e-06 0)
(-0.013053 -8.49675e-06 0)
(-0.0129846 -8.55372e-06 0)
(-0.0129145 -8.49e-06 -1.55271e-21)
(-0.0128437 -8.32832e-06 -1.52454e-21)
(-0.012773 -8.08874e-06 0)
(-0.012703 -7.7887e-06 -1.47009e-21)
(-0.0126342 -7.44324e-06 -1.44376e-21)
(-0.0125671 -7.06515e-06 1.41799e-21)
(-0.0125019 -6.66529e-06 0)
(-0.0124388 -6.25284e-06 0)
(-0.0123782 -5.83558e-06 1.34374e-21)
(-0.0123201 -5.42003e-06 0)
(-0.0122645 -5.01159e-06 0)
(-0.0122115 -4.61461e-06 0)
(-0.0121611 -4.23249e-06 0)
(-0.0121131 -3.8678e-06 -1.22851e-21)
(-0.0120676 -3.52231e-06 -1.20649e-21)
(-0.0120244 -3.19713e-06 0)
(-0.0119835 -2.89285e-06 -1.16329e-21)
(-0.0119446 -2.60952e-06 0)
(-0.0119078 -2.34679e-06 0)
(-0.0118727 -2.10394e-06 -1.10026e-21)
(-0.0118394 -1.87997e-06 0)
(-0.0118077 -1.67356e-06 -1.05921e-21)
(-0.0117774 -1.48314e-06 0)
(-0.0117485 -1.30686e-06 0)
(-0.0117208 -1.14265e-06 -9.98773e-22)
(-0.0116943 -9.88034e-07 0)
(-0.0116689 -8.40086e-07 -9.59095e-22)
(-0.0116444 -6.94835e-07 0)
(-0.011621 -5.4614e-07 0)
(-0.0115986 -3.82908e-07 0)
(-0.0115774 -1.83355e-07 8.80724e-22)
(-0.0115578 9.48089e-08 0)
(-0.0115409 5.26896e-07 -8.41735e-22)
(-0.0115282 1.22662e-06 0)
(-0.0115227 2.31775e-06 0)
(-0.0115278 3.78522e-06 0)
(-0.0115466 5.34661e-06 0)
(-0.0115776 7.25211e-06 0)
(-0.0116064 7.57412e-06 0)
(-0.0115969 2.73445e-06 0)
(-0.0115101 -8.09381e-06 1.33485e-21)
(-0.0112492 -1.76367e-05 0)
(-0.0100471 -0.000205413 0)
(4.67762e-05 -0.000270844 1.73459e-21)
(0.000595735 -0.0011077 -2.23546e-21)
(0.00164064 -0.00200486 0)
(0.00313031 -0.00278001 1.48225e-21)
(0.00493983 -0.0033321 0)
(0.00692998 -0.00361525 7.35422e-22)
(0.00895632 -0.00362177 -1.47369e-21)
(0.0108766 -0.00337234 -1.47384e-21)
(0.0125607 -0.00290829 0)
(0.0138991 -0.00228409 -1.47941e-21)
(0.0148082 -0.00155996 -7.41469e-22)
(0.0152328 -0.000794816 0)
(0.0151445 -4.00555e-05 0)
(0.0145382 0.000665546 0)
(0.0134254 0.00129927 0)
(0.0118255 0.00185555 -7.66371e-22)
(0.00975751 0.00234529 0)
(0.00723121 0.00279304 1.54952e-21)
(0.00424056 0.00323269 0)
(0.000759561 0.00370229 0)
(-0.00325886 0.0042387 -1.59356e-21)
(-0.00788009 0.00487288 0)
(-0.0131834 0.00562665 1.59715e-21)
(-0.0192553 0.00651142 -8.14148e-22)
(-0.0261818 0.00752835 8.16542e-22)
(-0.034042 0.0086698 -8.1892e-22)
(-0.0429011 0.00992088 -8.21182e-22)
(-0.0528049 0.0112608 0)
(-0.0637747 0.0126636 0)
(-0.0758025 0.0140987 8.26011e-22)
(-0.0888476 0.0155304 -7.91695e-22)
(-0.102834 0.016919 0)
(-0.117649 0.0182204 0)
(-0.133142 0.0193882 8.22008e-22)
(-0.149131 0.0203754 0)
(-0.165402 0.0211363 0)
(-0.181719 0.0216295 -8.0392e-22)
(-0.197831 0.0218204 0)
(-0.213478 0.0216829 7.80116e-22)
(-0.228405 0.0212014 -1.52953e-21)
(-0.242363 0.0203719 0)
(-0.255125 0.0192014 0)
(-0.266485 0.0177084 -2.82769e-21)
(-0.276267 0.0159209 -2.71444e-21)
(-0.284328 0.0138753 -2.58349e-21)
(-0.290556 0.0116145 1.24909e-21)
(-0.294875 0.0091848 -1.09936e-21)
(-0.297241 0.00663251 -3.08767e-21)
(-0.297645 0.00400433 1.88068e-21)
(-0.296097 0.00135075 7.91987e-22)
(-0.292645 -0.00127126 0)
(-0.287388 -0.00380753 -5.49122e-22)
(-0.280421 -0.0062218 4.96016e-22)
(-0.271851 -0.00847968 0)
(-0.261807 -0.0105528 0)
(-0.250425 -0.0124189 0)
(-0.23785 -0.0140609 1.03686e-22)
(-0.224232 -0.0154669 0)
(-0.209727 -0.0166294 -6.38622e-22)
(-0.194494 -0.0175456 0)
(-0.178691 -0.0182161 -1.08506e-21)
(-0.162476 -0.0186451 0)
(-0.146008 -0.0188399 1.45308e-21)
(-0.129441 -0.0188104 0)
(-0.112924 -0.0185693 -1.72114e-21)
(-0.0966023 -0.0181309 8.77057e-22)
(-0.0806149 -0.0175118 0)
(-0.0650927 -0.0167302 1.90289e-21)
(-0.050158 -0.0158055 9.78893e-22)
(-0.0359233 -0.0147586 9.62222e-22)
(-0.0224908 -0.0136108 0)
(-0.00994916 -0.0123848 8.3084e-22)
(0.00162501 -0.0111037 8.2612e-22)
(0.01216 -0.00978719 0)
(0.021616 -0.00845875 -6.48113e-22)
(0.02996 -0.00714097 1.05707e-21)
(0.0371729 -0.00585461 0)
(0.0432527 -0.00461847 3.57542e-22)
(0.0482133 -0.00344887 0)
(0.0520833 -0.00235942 -4.97744e-22)
(0.0549046 -0.00136096 0)
(0.0567317 -0.000461418 9.38021e-24)
(0.0576302 0.000334066 -6.49217e-23)
(0.0576742 0.00102333 1.49007e-22)
(0.0569452 0.00160762 4.19491e-22)
(0.0555298 0.00208942 -5.3038e-22)
(0.053517 0.00247363 0)
(0.0509964 0.00276707 0)
(0.0480561 0.00297803 0)
(0.0447804 0.00311583 2.64382e-21)
(0.0412483 0.00319036 9.52657e-22)
(0.037532 0.00321175 -1.01451e-21)
(0.0336958 0.00318993 0)
(0.0297957 0.00313432 -1.10108e-21)
(0.0258789 0.00305354 1.16143e-21)
(0.0219844 0.00295519 1.19974e-21)
(0.0181428 0.00284564 0)
(0.0143782 0.00272996 0)
(0.0107083 0.00261194 0)
(0.00714632 0.00249413 1.31414e-21)
(0.00370157 0.00237803 0)
(0.000380815 0.00226427 -2.68124e-21)
(-0.00281103 0.00215273 -4.05424e-21)
(-0.00586966 0.00204274 2.70318e-21)
(-0.00879066 0.00193372 0)
(-0.0115699 0.00182508 1.34508e-21)
(-0.0142034 0.00171634 0)
(-0.0166875 0.00160723 2.69355e-21)
(-0.0190188 0.00149771 -1.33551e-21)
(-0.0211947 0.001388 -1.32907e-21)
(-0.0232134 0.00127855 0)
(-0.0250744 0.00116998 -3.95238e-21)
(-0.026778 0.00106302 2.60932e-21)
(-0.0283262 0.000958488 1.29555e-21)
(-0.0297221 0.000857192 0)
(-0.03097 0.000759905 1.2661e-21)
(-0.0320754 0.000667315 3.74498e-21)
(-0.0330448 0.000580006 0)
(-0.0338855 0.000498433 2.42705e-21)
(-0.0346055 0.000422919 2.39121e-21)
(-0.0352132 0.000353655 2.35448e-21)
(-0.0357175 0.000290703 0)
(-0.0361271 0.000234013 0)
(-0.0364509 0.000183431 0)
(-0.0366975 0.000138718 -1.10088e-21)
(-0.0368754 9.95554e-05 -1.08296e-21)
(-0.0369924 6.55675e-05 0)
(-0.0370561 3.65307e-05 -2.08961e-21)
(-0.0370739 1.23633e-05 -2.05241e-21)
(-0.0370521 -7.96382e-06 0)
(-0.0369968 -2.47569e-05 -1.97991e-21)
(-0.0369136 -3.8311e-05 -3.88892e-21)
(-0.0368074 -4.8972e-05 1.90978e-21)
(-0.0366827 -5.70899e-05 1.87606e-21)
(-0.0365435 -6.29963e-05 0)
(-0.0363934 -6.69986e-05 0)
(-0.0362353 -6.93788e-05 0)
(-0.0360721 -7.0393e-05 1.74733e-21)
(-0.0359059 -7.0272e-05 -1.71757e-21)
(-0.0357389 -6.92215e-05 -3.37525e-21)
(-0.0355725 -6.74236e-05 1.65831e-21)
(-0.0354082 -6.50376e-05 -1.63048e-21)
(-0.035247 -6.22022e-05 -1.60207e-21)
(-0.0350899 -5.90375e-05 0)
(-0.0349376 -5.56467e-05 0)
(-0.0347904 -5.21178e-05 1.52228e-21)
(-0.0346488 -4.85254e-05 0)
(-0.034513 -4.49317e-05 0)
(-0.0343831 -4.1388e-05 -2.89157e-21)
(-0.034259 -3.79352e-05 0)
(-0.0341408 -3.46055e-05 -1.39701e-21)
(-0.0340282 -3.14232e-05 1.37266e-21)
(-0.033921 -2.84055e-05 0)
(-0.0338191 -2.55637e-05 -1.32578e-21)
(-0.0337221 -2.2904e-05 0)
(-0.0336297 -2.04283e-05 0)
(-0.0335417 -1.81346e-05 1.25649e-21)
(-0.0334578 -1.60181e-05 -2.46791e-21)
(-0.0333776 -1.4071e-05 1.2114e-21)
(-0.0333008 -1.22836e-05 0)
(-0.0332272 -1.06438e-05 0)
(-0.0331564 -9.13761e-06 -1.14492e-21)
(-0.0330883 -7.74826e-06 0)
(-0.0330225 -6.45469e-06 -1.10102e-21)
(-0.0329589 -5.22684e-06 0)
(-0.0328973 -4.01479e-06 0)
(-0.0328377 -2.72477e-06 0)
(-0.0327805 -1.17267e-06 -1.01392e-21)
(-0.0327264 9.89754e-07 0)
(-0.0326773 4.35524e-06 9.70443e-22)
(-0.0326365 9.75672e-06 0)
(-0.0326093 1.79737e-05 0)
(-0.0326015 2.88312e-05 -1.80786e-21)
(-0.0326159 3.96531e-05 1.76147e-21)
(-0.0326426 4.39552e-05 0)
(-0.0326415 2.67596e-05 0)
(-0.0325276 -3.35514e-05 0)
(-0.0321954 -0.000164969 -4.65089e-21)
(-0.031382 -0.000434117 0)
(-0.0291859 -0.00105347 2.83879e-21)
(8.26161e-05 -0.00111528 1.36261e-24)
(0.000936436 -0.00335968 2.97833e-21)
(0.00243884 -0.00538759 0)
(0.00447007 -0.00699012 -2.94924e-21)
(0.00682619 -0.0080361 0)
(0.00931019 -0.00846448 0)
(0.0117328 -0.00827352 -1.33066e-24)
(0.0139137 -0.00751098 1.46224e-21)
(0.0156898 -0.00626293 1.46653e-21)
(0.0169228 -0.00464083 1.46973e-21)
(0.0175039 -0.00276765 0)
(0.0173554 -0.000764087 0)
(0.0164273 0.00126397 -1.49257e-21)
(0.0146944 0.00323658 -2.99793e-21)
(0.0121457 0.00510615 3.01404e-21)
(0.00877709 0.00686092 0)
(0.00458061 0.00852355 3.05845e-21)
(-0.000464232 0.0101452 -1.55322e-21)
(-0.00639659 0.0117964 0)
(-0.0132763 0.0135552 3.05536e-21)
(-0.0211829 0.0154939 1.53649e-21)
(-0.0302094 0.0176692 -3.00893e-21)
(-0.0404536 0.0201145 -1.51561e-21)
(-0.0520075 0.0228367 0)
(-0.0649457 0.0258161 2.93957e-21)
(-0.0793153 0.0290093 2.91848e-21)
(-0.0951262 0.0323523 0)
(-0.112344 0.0357647 2.8827e-21)
(-0.130883 0.039152 0)
(-0.150605 0.042409 2.85853e-21)
(-0.171319 0.0454233 1.42571e-21)
(-0.192781 0.0480798 0)
(-0.214708 0.0502659 0)
(-0.23678 0.0518782 0)
(-0.258658 0.0528282 0)
(-0.279996 0.0530475 0)
(-0.300452 0.0524922 0)
(-0.319704 0.0511445 2.82875e-21)
(-0.337458 0.049013 -4.15468e-21)
(-0.353456 0.0461317 0)
(-0.367484 0.0425568 0)
(-0.379371 0.0383628 0)
(-0.388993 0.0336385 -1.58369e-22)
(-0.39627 0.028482 2.38433e-21)
(-0.40116 0.0229967 4.72739e-21)
(-0.403664 0.0172862 -4.48962e-21)
(-0.403812 0.0114509 -2.18753e-21)
(-0.401665 0.00558894 1.87478e-21)
(-0.397298 -0.000200777 1.49855e-22)
(-0.390848 -0.00581727 1.64488e-21)
(-0.382448 -0.0111821 0)
(-0.37222 -0.0162402 1.19553e-21)
(-0.360303 -0.0209403 1.20662e-22)
(-0.346841 -0.0252425 0)
(-0.331985 -0.0291155 0)
(-0.315887 -0.0325357 -2.12754e-22)
(-0.298705 -0.0354873 0)
(-0.280597 -0.0379611 0)
(-0.261722 -0.0399543 -4.26221e-22)
(-0.242238 -0.0414697 -1.46037e-21)
(-0.222304 -0.0425154 1.01103e-21)
(-0.202076 -0.0431037 0)
(-0.181707 -0.043251 -1.36206e-21)
(-0.161347 -0.0429776 0)
(-0.141143 -0.0423069 -1.49441e-21)
(-0.121237 -0.0412652 -1.71606e-21)
(-0.101763 -0.0398818 3.43501e-21)
(-0.0828522 -0.0381884 1.69098e-21)
(-0.0646259 -0.0362186 0)
(-0.0471983 -0.0340085 -3.47215e-21)
(-0.0306743 -0.0315952 0)
(-0.0151487 -0.0290173 -4.87574e-21)
(-0.000705647 -0.0263145 -2.99969e-21)
(0.0125743 -0.023528 -2.70712e-21)
(0.0246385 -0.0206975 2.34414e-21)
(0.0354451 -0.0178644 -3.00705e-21)
(0.0449603 -0.0150664 0)
(0.0531671 -0.012339 0)
(0.060063 -0.00971496 8.81697e-22)
(0.0656594 -0.00722392 8.61061e-22)
(0.0699822 -0.0048915 0)
(0.0730707 -0.00273898 9.07553e-25)
(0.0749776 -0.000782905 0)
(0.0757681 0.000964962 -8.90563e-22)
(0.0755173 0.00249916 4.92872e-23)
(0.0743098 0.00381757 -4.19031e-23)
(0.0722383 0.00492302 1.25746e-21)
(0.0694013 0.00582302 0)
(0.0659001 0.00652916 -1.59111e-21)
(0.0618369 0.00705636 1.56113e-23)
(0.0573123 0.00742207 0)
(0.052423 0.00764552 0)
(0.0472599 0.00774685 0)
(0.0419064 0.00774627 2.17515e-21)
(0.0364373 0.00766328 0)
(0.030918 0.00751591 0)
(0.0254046 0.00732019 0)
(0.0199438 0.00708971 0)
(0.0145742 0.00683541 0)
(0.00932688 0.00656562 2.57534e-21)
(0.00422699 0.00628629 0)
(-0.000705572 0.0060014 2.66494e-21)
(-0.00545453 0.00571324 2.67366e-21)
(-0.010007 0.00542236 -2.67589e-21)
(-0.0143517 0.00512895 0)
(-0.0184789 0.00483321 -2.6706e-21)
(-0.0223808 0.00453543 0)