/*--------------------------------*- C++ -*----------------------------------*\
  =========                 |
  \\      /  F ield         | OpenFOAM: The Open Source CFD Toolbox
   \\    /   O peration     | Website:  https://openfoam.org
    \\  /    A nd           | Version:  8
     \\/     M anipulation  |
\*---------------------------------------------------------------------------*/
FoamFile
{
    version     2.0;
    format      ascii;
    class       volScalarField;
    location    "0.74";
    object      p;
}
// * * * * * * * * * * * * * * * * * * * * * * * * * * * * * * * * * * * * * //

dimensions      [0 2 -2 0 0 0 0];

internalField   nonuniform List<scalar> 
12225
(
-0.00342993
-0.00339906
-0.00336898
-0.00334612
-0.00333612
-0.00334158
-0.00336488
-0.00340836
-0.00347471
-0.00356743
-0.00369146
-0.00385455
-0.00406965
-0.00436007
-0.00476939
-0.00538096
-0.00642961
-0.00888564
-0.0034297
-0.00340212
-0.00337517
-0.00335515
-0.00334777
-0.00335572
-0.00338147
-0.00342736
-0.00349611
-0.00359121
-0.00371754
-0.00388262
-0.0040987
-0.00438683
-0.00478345
-0.0053525
-0.00621866
-0.00787547
-0.00343067
-0.00340609
-0.0033826
-0.00336584
-0.00336148
-0.00337231
-0.00340081
-0.00344936
-0.00352065
-0.00361806
-0.00374626
-0.00391223
-0.00412679
-0.00440727
-0.0047803
-0.00528411
-0.00593975
-0.00698178
-0.00343313
-0.00341052
-0.00338994
-0.00337614
-0.00337458
-0.00338802
-0.00341897
-0.00346975
-0.00354296
-0.00364175
-0.00377036
-0.00393478
-0.00414374
-0.00440981
-0.00474901
-0.00517677
-0.00566593
-0.00632154
-0.00343691
-0.0034154
-0.00339716
-0.00338601
-0.00338696
-0.00340273
-0.00343576
-0.00348829
-0.00356273
-0.00366189
-0.00378933
-0.00394976
-0.00414933
-0.00439557
-0.00469495
-0.00504697
-0.00540868
-0.0058184
-0.00344178
-0.00342071
-0.00340432
-0.00339551
-0.00339872
-0.00341655
-0.00345132
-0.00350511
-0.00358009
-0.0036786
-0.00380337
-0.00395759
-0.00414472
-0.00436754
-0.00462503
-0.00490668
-0.0051689
-0.00541729
-0.00344748
-0.00342633
-0.00341132
-0.00340455
-0.00340973
-0.00342931
-0.00346542
-0.00351997
-0.00359476
-0.0036916
-0.00381228
-0.0039584
-0.00413082
-0.00432837
-0.00454485
-0.0047646
-0.00494996
-0.0050945
-0.00345366
-0.00343205
-0.00341798
-0.00341292
-0.00341977
-0.00344075
-0.00347778
-0.00353251
-0.00360637
-0.00370056
-0.00381588
-0.0039524
-0.00410873
-0.00428073
-0.00445913
-0.00462691
-0.00475466
-0.00483473
-0.00345989
-0.00343759
-0.00342408
-0.00342041
-0.00342859
-0.0034506
-0.00348809
-0.00354243
-0.00361464
-0.00370529
-0.00381422
-0.00394014
-0.00407988
-0.00422734
-0.00437197
-0.00449783
-0.00458369
-0.00462491
-0.00346563
-0.00344259
-0.00342936
-0.00342676
-0.00343595
-0.00345859
-0.00349608
-0.00354947
-0.00361938
-0.00370573
-0.00380754
-0.00392237
-0.00404583
-0.00417075
-0.00428662
-0.00437982
-0.0044361
-0.00445447
-0.00347032
-0.00344658
-0.00343349
-0.0034317
-0.00344157
-0.00346446
-0.00350149
-0.00355341
-0.00362042
-0.00370193
-0.0037962
-0.00389999
-0.00400812
-0.00411312
-0.00420528
-0.00427373
-0.00430954
-0.00431483
-0.00347307
-0.00344888
-0.00343587
-0.00343462
-0.00344483
-0.0034676
-0.00350381
-0.00355395
-0.0036179
-0.00369463
-0.00378192
-0.00387603
-0.00397143
-0.0040608
-0.00413548
-0.00418687
-0.00420951
-0.00420759
-0.00347372
-0.00344988
-0.00343696
-0.00343614
-0.00344653
-0.00346894
-0.00350403
-0.00355207
-0.00361264
-0.00368439
-0.00376474
-0.00384966
-0.0039336
-0.00400973
-0.00407055
-0.00410951
-0.00412354
-0.00411683
-0.00347125
-0.00344867
-0.00343609
-0.00343567
-0.00344606
-0.00346774
-0.00350119
-0.00354643
-0.00360282
-0.00366874
-0.00374138
-0.00381665
-0.00388922
-0.00395294
-0.00400163
-0.00403051
-0.00403809
-0.00402794
-0.00346352
-0.00344333
-0.00343176
-0.00343181
-0.00344198
-0.00346246
-0.00349357
-0.00353519
-0.00358651
-0.00364578
-0.00371015
-0.00377566
-0.0038374
-0.00389002
-0.00392853
-0.0039495
-0.00395206
-0.00393892
-0.00344747
-0.00343126
-0.00342191
-0.00342268
-0.00343238
-0.00345106
-0.00347898
-0.00351596
-0.00356119
-0.00361293
-0.00366848
-0.0037242
-0.00377573
-0.00381851
-0.00384845
-0.00386277
-0.0038607
-0.00384378
-0.0034195
-0.00340935
-0.00340392
-0.00340591
-0.00341487
-0.00343101
-0.00345463
-0.00348565
-0.00352338
-0.0035663
-0.00361203
-0.00365737
-0.00369854
-0.00373161
-0.00375306
-0.00376041
-0.00375236
-0.00372932
-0.00337663
-0.00337482
-0.00337518
-0.00337893
-0.00338672
-0.00339923
-0.00341698
-0.0034401
-0.00346814
-0.00349993
-0.00353351
-0.0035662
-0.00359477
-0.0036158
-0.0036261
-0.00362312
-0.00360504
-0.00357126
-0.00332023
-0.00332824
-0.00333519
-0.00334038
-0.00334567
-0.00335244
-0.0033615
-0.00337328
-0.00338767
-0.00340396
-0.00342074
-0.0034359
-0.00344681
-0.00345054
-0.00344418
-0.00342503
-0.00339057
-0.00333952
-0.00327781
-0.00329356
-0.00330531
-0.00331079
-0.00331274
-0.00331277
-0.00331175
-0.00331013
-0.00330801
-0.00330498
-0.00330014
-0.00329201
-0.0032787
-0.00325802
-0.00322778
-0.00318587
-0.00312997
-0.00305832
-0.00325696
-0.00327658
-0.00329051
-0.00329581
-0.00329547
-0.00329096
-0.00328291
-0.00327168
-0.00325732
-0.00323953
-0.00321764
-0.00319059
-0.00315699
-0.00311523
-0.00306371
-0.00300089
-0.00292494
-0.0028344
-0.00325082
-0.00327182
-0.00328647
-0.00329171
-0.0032902
-0.00328294
-0.00327021
-0.00325211
-0.00322853
-0.00319914
-0.00316335
-0.00312035
-0.00306912
-0.00300856
-0.00293758
-0.00285521
-0.00276026
-0.00265164
-0.00325442
-0.00327514
-0.00328982
-0.00329549
-0.00329404
-0.0032858
-0.00327069
-0.0032485
-0.00321889
-0.00318142
-0.00313549
-0.0030804
-0.00301537
-0.00293964
-0.00285255
-0.0027536
-0.00264225
-0.00251798
-0.00326315
-0.00328279
-0.00329745
-0.00330424
-0.00330394
-0.00329625
-0.00328069
-0.00325677
-0.00322395
-0.0031816
-0.00312904
-0.00306559
-0.00299059
-0.00290348
-0.00280391
-0.00269171
-0.0025669
-0.00242951
-0.00327351
-0.00329197
-0.00330705
-0.00331567
-0.00331741
-0.00331138
-0.00329681
-0.00327298
-0.00323911
-0.00319443
-0.00313812
-0.00306945
-0.00298779
-0.00289268
-0.00278392
-0.0026616
-0.00252609
-0.002378
-0.00328316
-0.00330089
-0.0033171
-0.00332819
-0.00333258
-0.00332896
-0.00331635
-0.00329384
-0.00326048
-0.00321532
-0.00315743
-0.00308596
-0.00300025
-0.00289986
-0.00278464
-0.00265481
-0.00251098
-0.00235419
-0.0032908
-0.00330863
-0.00332681
-0.00334086
-0.00334829
-0.00334753
-0.00333746
-0.00331704
-0.00328521
-0.00324087
-0.00318294
-0.00311045
-0.00302263
-0.002919
-0.00279942
-0.00266415
-0.00251388
-0.00235
-0.00329579
-0.0033149
-0.00333592
-0.00335335
-0.00336406
-0.00336641
-0.00335923
-0.00334143
-0.00331184
-0.00326921
-0.00321234
-0.0031401
-0.00305161
-0.00294627
-0.0028239
-0.00268473
-0.00252947
-0.00235963
-0.00329799
-0.00331971
-0.00334436
-0.00336541
-0.00337953
-0.0033851
-0.003381
-0.00336612
-0.00333921
-0.00329893
-0.00324389
-0.00317283
-0.00308471
-0.00297881
-0.00285483
-0.00271294
-0.0025538
-0.00237894
-0.00329808
-0.00332291
-0.00335086
-0.00337496
-0.00339186
-0.00340006
-0.00339852
-0.00338613
-0.00336158
-0.00332344
-0.00327023
-0.00320053
-0.00311317
-0.00300732
-0.00288256
-0.00273899
-0.00257721
-0.00239873
0.000469208
0.0004841
0.000487783
0.000470582
0.000431716
0.00037208
0.000292785
0.000195185
8.08013e-05
-4.88602e-05
-0.000192399
-0.000348634
-0.000516591
-0.000695505
-0.000884786
-0.00108396
-0.00129261
-0.00151028
-0.0017364
-0.0019702
-0.00221063
-0.00245628
-0.00270532
-0.00295545
-0.00320384
-0.0034471
-0.0036813
-0.00390191
-0.0041039
-0.00428172
-0.00442941
-0.00454069
-0.00460907
-0.00462801
-0.0045911
-0.00449227
-0.00432599
-0.00408749
-0.00377299
-0.00337994
-0.00290718
-0.0023551
-0.00172581
-0.00102317
-0.000252799
0.000578179
0.00146048
0.00238359
0.00333568
0.00430382
0.0052743
0.00623299
0.00716566
0.00805826
0.00889722
0.00966976
0.0103641
0.0109695
0.0114766
0.0118775
0.0121656
0.0123356
0.0123838
0.0123082
0.0121078
0.0117832
0.011337
0.0107729
0.0100967
0.00931601
0.00844027
0.00748104
0.00645194
0.00536865
0.00424867
0.00311114
0.00197634
0.000865187
-0.000201727
-0.00120417
-0.00212427
-0.00294637
-0.0036581
-0.00425097
-0.00472087
-0.00506818
-0.00529764
-0.0054179
-0.00544085
-0.00538071
-0.005253
-0.00507361
-0.00485784
-0.00461969
-0.00437139
-0.00412315
-0.00388314
-0.00365763
-0.00345122
-0.0032671
-0.00310719
-0.00297227
-0.002862
-0.00277503
-0.00270909
-0.00266117
-0.00262781
-0.0026054
-0.00259041
-0.00257966
-0.00257041
-0.00256044
-0.00254807
-0.0025321
-0.0025118
-0.0024868
-0.00245709
-0.00242289
-0.00238467
-0.00234305
-0.00229877
-0.00225257
-0.00220531
-0.00215775
-0.00211064
-0.0020646
-0.0020202
-0.00197786
-0.00193791
-0.00190057
-0.00186595
-0.00183406
-0.00180484
-0.00177817
-0.00175388
-0.00173176
-0.00171157
-0.00169307
-0.00167602
-0.00166018
-0.0016453
-0.00163117
-0.00161759
-0.00160438
-0.00159137
-0.00157842
-0.00156541
-0.00155221
-0.00153875
-0.00152495
-0.00151074
-0.00149606
-0.0014809
-0.0014652
-0.00144896
-0.00143216
-0.0014148
-0.00139688
-0.00137839
-0.00135934
-0.00133973
-0.00131958
-0.00129888
-0.00127762
-0.0012558
-0.00123337
-0.0012103
-0.00118651
-0.00116191
-0.00113638
-0.0011098
-0.00108201
-0.00105285
-0.00102225
-0.000990117
-0.000956475
-0.00092144
-0.000885709
-0.00085196
-0.000806118
0.000479069
0.00049407
0.000497541
0.000480958
0.000445
0.000391172
0.000320592
0.000234344
0.000133567
1.93799e-05
-0.000107224
-0.000245385
-0.000394423
-0.000553824
-0.000723206
-0.000902272
-0.00109076
-0.00128838
-0.00149473
-0.00170924
-0.00193107
-0.00215908
-0.00239173
-0.00262706
-0.0028626
-0.00309536
-0.0033218
-0.00353782
-0.00373875
-0.00391939
-0.00407405
-0.00419665
-0.00428082
-0.00432004
-0.00430777
-0.00423773
-0.00410405
-0.00390152
-0.00362585
-0.00327385
-0.00284373
-0.00233522
-0.00174976
-0.00109057
-0.000362526
0.000427518
0.00127114
0.00215808
0.00307666
0.00401413
0.00495692
0.00589093
0.00680188
0.00767567
0.00849862
0.00925781
0.00994128
0.0105382
0.0110392
0.011436
0.0117221
0.011892
0.011942
0.0118696
0.011674
0.0113562
0.0109187
0.0103655
0.00970257
0.00893754
0.00808011
0.00714204
0.00613716
0.00508131
0.00399217
0.00288893
0.00179185
0.000721657
-0.00030104
-0.00125705
-0.00212916
-0.00290286
-0.003567
-0.00411452
-0.00454281
-0.0048537
-0.00505325
-0.00515114
-0.00515988
-0.00509386
-0.00496828
-0.00479824
-0.00459792
-0.00437992
-0.00415499
-0.00393185
-0.0037173
-0.00351645
-0.00333297
-0.00316938
-0.00302715
-0.00290689
-0.00280828
-0.00273019
-0.00267068
-0.00262722
-0.00259684
-0.00257642
-0.00256287
-0.00255335
-0.0025454
-0.00253695
-0.00252641
-0.00251261
-0.00249475
-0.00247244
-0.00244554
-0.00241421
-0.00237883
-0.00233992
-0.00229816
-0.00225428
-0.00220904
-0.0021632
-0.0021175
-0.00207257
-0.00202897
-0.00198716
-0.00194749
-0.00191021
-0.00187545
-0.00184328
-0.00181365
-0.00178648
-0.00176161
-0.00173888
-0.00171806
-0.00169892
-0.00168125
-0.00166479
-0.00164933
-0.00163466
-0.00162058
-0.00160691
-0.00159348
-0.00158016
-0.00156681
-0.00155332
-0.00153959
-0.00152556
-0.00151115
-0.00149632
-0.00148101
-0.0014652
-0.00144886
-0.00143198
-0.00141455
-0.00139657
-0.00137803
-0.00135894
-0.00133931
-0.00131914
-0.00129842
-0.00127714
-0.0012553
-0.00123287
-0.00120978
-0.00118599
-0.0011614
-0.00113591
-0.00110939
-0.00108173
-0.00105283
-0.00102255
-0.00099089
-0.000957897
-0.00092375
-0.000889234
-0.000856924
-0.0008131
0.000582397
0.000589917
0.000585822
0.000563763
0.000525109
0.000471587
0.00040431
0.00032419
0.000232104
0.000128849
1.50772e-05
-0.00010873
-0.000242261
-0.000385368
-0.000538026
-0.000700299
-0.000872285
-0.00105405
-0.00124557
-0.00144664
-0.00165684
-0.00187542
-0.00210126
-0.00233281
-0.00256798
-0.00280417
-0.00303814
-0.00326602
-0.00348329
-0.00368478
-0.00386472
-0.0040168
-0.00413429
-0.00421016
-0.0042373
-0.00420873
-0.00411781
-0.00395854
-0.00372585
-0.00341582
-0.00302594
-0.00255542
-0.00200522
-0.00137806
-0.000678509
8.65961e-05
0.000908536
0.0017769
0.00267984
0.00360429
0.00453635
0.00546156
0.00636532
0.0072332
0.00805127
0.00880642
0.00948654
0.0100808
0.0105796
0.010975
0.0112602
0.0114303
0.0114814
0.0114111
0.0112186
0.0109049
0.0104727
0.00992597
0.00927066
0.00851448
0.00766721
0.00674077
0.00574923
0.00470873
0.00363736
0.00255475
0.00148165
0.000439259
-0.000551494
-0.00147108
-0.00230205
-0.00303044
-0.00364591
-0.00414251
-0.0045191
-0.00477939
-0.00493146
-0.00498702
-0.00496041
-0.00486743
-0.00472412
-0.00454575
-0.00434597
-0.0041363
-0.00392595
-0.0037219
-0.00352918
-0.00335122
-0.00319032
-0.00304788
-0.00292467
-0.00282085
-0.00273598
-0.002669
-0.00261826
-0.00258157
-0.00255637
-0.00253995
-0.00252963
-0.0025229
-0.00251754
-0.00251169
-0.00250384
-0.00249286
-0.00247797
-0.0024587
-0.00243487
-0.00240657
-0.00237409
-0.00233791
-0.00229864
-0.00225699
-0.00221368
-0.00216948
-0.00212508
-0.00208116
-0.00203829
-0.00199695
-0.0019575
-0.00192024
-0.00188532
-0.00185284
-0.00182279
-0.00179511
-0.00176967
-0.00174632
-0.00172486
-0.00170509
-0.00168678
-0.00166971
-0.00165367
-0.00163845
-0.00162385
-0.0016097
-0.00159584
-0.00158212
-0.00156842
-0.00155461
-0.00154061
-0.00152633
-0.00151171
-0.00149669
-0.00148123
-0.00146529
-0.00144884
-0.00143187
-0.00141437
-0.00139633
-0.00137774
-0.00135862
-0.00133895
-0.00131875
-0.00129801
-0.00127671
-0.00125486
-0.0012324
-0.00120931
-0.00118552
-0.00116095
-0.00113552
-0.00110911
-0.00108163
-0.00105299
-0.0010231
-0.000991967
-0.000959691
-0.000926479
-0.000893142
-0.000862487
-0.000819841
0.000783395
0.000774401
0.000753874
0.000719688
0.000672799
0.000614336
0.000545124
0.000465848
0.000377085
0.000279255
0.000172596
5.71501e-05
-6.72354e-05
-0.000200895
-0.000344315
-0.000498087
-0.000662855
-0.000839247
-0.0010278
-0.00122888
-0.0014426
-0.00166874
-0.00190664
-0.00215512
-0.0024124
-0.00267602
-0.00294275
-0.00320855
-0.00346855
-0.00371706
-0.00394757
-0.00415289
-0.00432529
-0.00445663
-0.00453864
-0.00456319
-0.00452257
-0.00440979
-0.00421892
-0.0039454
-0.00358631
-0.0031406
-0.00260913
-0.0019945
-0.00130183
-0.000538775
0.000285341
0.00115941
0.00207082
0.00300571
0.00394939
0.00488671
0.00580243
0.00668158
0.00750986
0.00827388
0.00896145
0.0095617
0.0100652
0.0104642
0.0107523
0.0109247
0.0109778
0.0109097
0.0107196
0.0104084
0.00997853
0.00943411
0.00878075
0.00802604
0.00717965
0.00625347
0.00526168
0.00422073
0.0031492
0.00206743
0.000997092
-3.95535e-05
-0.00102045
-0.00192467
-0.00273343
-0.00343176
-0.00400906
-0.00445948
-0.00478258
-0.00498351
-0.00507254
-0.00506417
-0.00497581
-0.00482633
-0.00463444
-0.00441736
-0.00418975
-0.00396317
-0.00374595
-0.00354351
-0.00335892
-0.00319358
-0.00304784
-0.00292153
-0.00281421
-0.00272526
-0.00265379
-0.00259852
-0.00255781
-0.0025296
-0.00251154
-0.00250112
-0.00249591
-0.00249362
-0.00249222
-0.00249
-0.00248555
-0.00247781
-0.00246599
-0.00244964
-0.00242856
-0.00240281
-0.00237266
-0.00233857
-0.00230112
-0.00226103
-0.00221902
-0.00217586
-0.00213227
-0.00208893
-0.00204644
-0.0020053
-0.0019659
-0.00192855
-0.00189343
-0.00186066
-0.00183024
-0.00180214
-0.00177625
-0.00175242
-0.00173047
-0.00171019
-0.00169139
-0.00167385
-0.00165735
-0.0016417
-0.00162669
-0.00161217
-0.00159796
-0.00158392
-0.00156992
-0.00155586
-0.00154162
-0.00152714
-0.00151234
-0.00149716
-0.00148155
-0.00146549
-0.00144894
-0.00143189
-0.00141431
-0.00139621
-0.00137758
-0.00135842
-0.00133872
-0.00131849
-0.00129772
-0.00127641
-0.00125454
-0.00123207
-0.00120899
-0.00118521
-0.00116069
-0.00113534
-0.00110907
-0.00108178
-0.00105341
-0.00102389
-0.000993251
-0.000961606
-0.000929169
-0.000896713
-0.000866918
-0.000825785
0.00105814
0.00102574
0.000981755
0.000930128
0.000870826
0.000803732
0.000729056
0.000646982
0.000557542
0.000460594
0.000355804
0.00024263
0.000120317
-1.20953e-05
-0.000155744
-0.000311894
-0.000481881
-0.000667028
-0.000868557
-0.00108749
-0.00132451
-0.00157991
-0.00185337
-0.00214392
-0.00244978
-0.00276826
-0.00309566
-0.00342722
-0.00375714
-0.00407852
-0.00438355
-0.00466358
-0.00490936
-0.00511124
-0.00525955
-0.00534485
-0.00535833
-0.00529212
-0.00513967
-0.00489608
-0.00455834
-0.00412546
-0.0035984
-0.00298077
-0.00227886
-0.00150096
-0.000657398
0.000239679
0.00117655
0.0021383
0.00310923
0.00407326
0.00501437
0.00591696
0.00676628
0.00754868
0.00825187
0.00886511
0.00937924
0.00978674
0.0100817
0.0102597
0.0103176
0.0102537
0.0100673
0.0097594
0.00933232
0.00878988
0.00813743
0.00738218
0.00653348
0.00560301
0.00460487
0.00355567
0.00247441
0.00138216
0.000301618
-0.000743608
-0.00172986
-0.00263447
-0.00343655
-0.004119
-0.00466947
-0.00508105
-0.0053529
-0.00549062
-0.00550607
-0.00541647
-0.0052429
-0.00500851
-0.00473642
-0.00444777
-0.00416024
-0.00388709
-0.00363698
-0.00341442
-0.00322064
-0.00305469
-0.00291452
-0.00279771
-0.00270202
-0.00262549
-0.00256631
-0.00252268
-0.00249262
-0.00247399
-0.00246442
-0.00246148
-0.00246282
-0.00246628
-0.00246996
-0.00247224
-0.0024718
-0.00246764
-0.00245903
-0.00244551
-0.0024269
-0.00240329
-0.00237494
-0.00234234
-0.00230609
-0.00226692
-0.00222561
-0.00218292
-0.00213964
-0.00209645
-0.00205398
-0.00201275
-0.00197319
-0.0019356
-0.0019002
-0.0018671
-0.00183634
-0.00180787
-0.00178159
-0.00175738
-0.00173504
-0.00171438
-0.00169521
-0.0016773
-0.00166046
-0.00164447
-0.00162916
-0.00161434
-0.00159985
-0.00158556
-0.00157133
-0.00155706
-0.00154263
-0.00152797
-0.00151301
-0.00149769
-0.00148197
-0.0014658
-0.00144916
-0.00143202
-0.00141438
-0.00139622
-0.00137753
-0.00135833
-0.0013386
-0.00131834
-0.00129755
-0.00127622
-0.00125434
-0.00123187
-0.0012088
-0.00118507
-0.00116061
-0.00113536
-0.00110923
-0.00108216
-0.00105407
-0.00102492
-0.000994748
-0.000963667
-0.000931883
-0.00090009
-0.000870563
-0.000831523
0.00137798
0.00131812
0.00124669
0.00117464
0.00110054
0.00102256
0.000939888
0.000851898
0.000757825
0.00065674
0.000547543
0.00042894
0.000299424
0.000157278
5.97187e-07
-0.000172661
-0.000364602
-0.00057729
-0.000812635
-0.00107225
-0.00135728
-0.00166828
-0.002005
-0.00236626
-0.00274978
-0.00315208
-0.00356839
-0.00399262
-0.00441739
-0.00483411
-0.00523317
-0.0056041
-0.00593593
-0.00621743
-0.00643753
-0.00658565
-0.00665211
-0.00662847
-0.00650791
-0.00628551
-0.00595846
-0.00552617
-0.00499055
-0.00435636
-0.00363084
-0.00282335
-0.00194542
-0.00101048
-3.35401e-05
0.000969237
0.00198096
0.00298449
0.00396288
0.00489981
0.00578
0.00658953
0.00731605
0.00794896
0.00847944
0.00890043
0.00920655
0.00939392
0.00945996
0.0094032
0.00922333
0.00892123
0.00849907
0.00796041
0.00731016
0.00655505
0.00570391
0.00476801
0.00376124
0.00270019
0.00160414
0.000494792
-0.00060416
-0.00166773
-0.0026705
-0.00358772
-0.00439646
-0.00507669
-0.0056132
-0.00599684
-0.00622514
-0.00630288
-0.00624229
-0.00606238
-0.00578761
-0.00544576
-0.0050655
-0.0046737
-0.00429316
-0.00394102
-0.00362813
-0.00335938
-0.00313485
-0.00295134
-0.002804
-0.0026876
-0.00259737
-0.00252932
-0.00248018
-0.00244711
-0.00242748
-0.00241874
-0.00241833
-0.00242371
-0.00243251
-0.00244259
-0.00245209
-0.00245946
-0.00246344
-0.00246306
-0.00245765
-0.00244678
-0.00243033
-0.0024084
-0.00238132
-0.00234961
-0.00231393
-0.00227507
-0.00223384
-0.00219108
-0.00214759
-0.00210411
-0.00206129
-0.00201968
-0.00197972
-0.00194174
-0.00190595
-0.00187248
-0.00184135
-0.00181253
-0.00178593
-0.00176139
-0.00173874
-0.0017178
-0.00169834
-0.00168017
-0.00166307
-0.00164684
-0.00163129
-0.00161625
-0.00160156
-0.00158707
-0.00157266
-0.00155821
-0.00154363
-0.00152882
-0.00151373
-0.0014983
-0.00148246
-0.0014662
-0.00144947
-0.00143226
-0.00141455
-0.00139633
-0.00137759
-0.00135834
-0.00133857
-0.00131828
-0.00129747
-0.00127613
-0.00125424
-0.00123179
-0.00120874
-0.00118505
-0.00116067
-0.00113554
-0.00110959
-0.00108275
-0.00105495
-0.00102618
-0.000996462
-0.000965905
-0.000934699
-0.000903434
-0.000873859
-0.000837301
0.00170866
0.00161981
0.00151957
0.00142621
0.00133653
0.00124652
0.00115399
0.00105721
0.000954345
0.000843453
0.000722476
0.000589211
0.000441269
0.000276076
9.08884e-05
-0.000117142
-0.000350871
-0.000613033
-0.000906073
-0.00123196
-0.001592
-0.00198659
-0.00241506
-0.00287546
-0.00336443
-0.00387709
-0.00440704
-0.00494631
-0.00548556
-0.0060142
-0.00652064
-0.00699258
-0.00741739
-0.00778244
-0.00807553
-0.00828522
-0.00840129
-0.00841503
-0.0083196
-0.00811029
-0.00778469
-0.00734297
-0.00678818
-0.00612609
-0.00536488
-0.00451515
-0.00358979
-0.00260366
-0.0015732
-0.000516005
0.000549691
0.00160549
0.00263336
0.00361613
0.00453786
0.00538427
0.00614291
0.00680333
0.0073571
0.00779769
0.00812036
0.00832189
0.00840034
0.00835469
0.00818495
0.00789205
0.00747792
0.00694581
0.00630017
0.0055471
0.00469484
0.00375413
0.00273848
0.00166437
0.000551242
-0.000578689
-0.00170084
-0.00278891
-0.0038158
-0.00475465
-0.00558011
-0.00626945
-0.00680452
-0.00717267
-0.00736874
-0.00739553
-0.00726417
-0.00699409
-0.0066119
-0.00614945
-0.00564108
-0.00512041
-0.00461714
-0.00415452
-0.00374784
-0.00340433
-0.00312425
-0.00290282
-0.00273243
-0.00260461
-0.00251142
-0.00244612
-0.0024033
-0.00237856
-0.00236815
-0.00236876
-0.00237742
-0.00239131
-0.00240789
-0.00242494
-0.00244058
-0.00245326
-0.00246175
-0.00246511
-0.00246269
-0.00245415
-0.00243938
-0.00241857
-0.00239213
-0.00236064
-0.00232486
-0.00228564
-0.00224387
-0.00220046
-0.00215625
-0.00211203
-0.00206849
-0.0020262
-0.00198562
-0.00194707
-0.00191079
-0.00187687
-0.00184536
-0.00181621
-0.00178931
-0.00176452
-0.00174164
-0.00172049
-0.00170084
-0.00168248
-0.0016652
-0.00164881
-0.0016331
-0.00161791
-0.00160307
-0.00158845
-0.0015739
-0.00155932
-0.00154462
-0.0015297
-0.0015145
-0.00149896
-0.00148303
-0.00146668
-0.00144987
-0.00143259
-0.00141481
-0.00139654
-0.00137775
-0.00135846
-0.00133865
-0.00131833
-0.00129749
-0.00127613
-0.00125424
-0.0012318
-0.00120879
-0.00118516
-0.00116088
-0.00113589
-0.00111012
-0.00108353
-0.00105605
-0.00102766
-0.000998379
-0.000968312
-0.000937627
-0.000906789
-0.000876993
-0.000843097
0.00201161
0.00189459
0.00176651
0.00165265
0.00154772
0.0014452
0.00134122
0.00123268
0.00111645
0.000989379
0.000848303
0.000689988
0.000511085
0.000308116
7.75073e-05
-0.000184332
-0.000480879
-0.000815322
-0.00119035
-0.00160793
-0.00206902
-0.00257338
-0.00311936
-0.00370366
-0.00432132
-0.00496559
-0.00562801
-0.00629855
-0.00696575
-0.00761698
-0.00823882
-0.00881733
-0.00933849
-0.00978855
-0.0101544
-0.0104242
-0.0105871
-0.0106345
-0.0105595
-0.0103577
-0.0100271
-0.00956892
-0.00898694
-0.00828778
-0.00748072
-0.00657771
-0.00559306
-0.00454317
-0.00344608
-0.00232098
-0.00118769
-6.60679e-05
0.00102456
0.00206592
0.00304129
0.00393585
0.00473696
0.00543428
0.00601975
0.00648743
0.0068333
0.00705489
0.00715101
0.00712129
0.00696604
0.00668629
0.00628389
0.00576167
0.0051236
0.00437514
0.00352387
0.00257993
0.0015564
0.00046955
-0.000661079
-0.00181283
-0.00296032
-0.00407604
-0.00513129
-0.00609721
-0.00694609
-0.00765265
-0.00819574
-0.00855927
-0.00873462
-0.0087217
-0.00852946
-0.00817623
-0.00768925
-0.00710304
-0.0064568
-0.00579084
-0.00514266
-0.00454331
-0.00401472
-0.0035687
-0.00320757
-0.00292622
-0.00271485
-0.00256172
-0.00245525
-0.00238535
-0.00234376
-0.00232392
-0.00232048
-0.00232904
-0.0023459
-0.00236779
-0.00239186
-0.0024157
-0.00243733
-0.00245514
-0.00246788
-0.00247462
-0.00247476
-0.00246799
-0.00245429
-0.00243393
-0.00240741
-0.00237543
-0.00233883
-0.00229857
-0.00225564
-0.002211
-0.00216557
-0.00212019
-0.00207558
-0.00203233
-0.00199091
-0.00195165
-0.00191477
-0.00188036
-0.00184846
-0.00181899
-0.00179184
-0.00176684
-0.0017438
-0.00172251
-0.00170275
-0.00168429
-0.00166693
-0.00165044
-0.00163465
-0.00161937
-0.00160444
-0.00158972
-0.00157508
-0.00156041
-0.00154561
-0.00153061
-0.00151532
-0.00149969
-0.00148369
-0.00146726
-0.00145038
-0.00143302
-0.00141519
-0.00139685
-0.00137801
-0.00135867
-0.00133882
-0.00131847
-0.0012976
-0.00127623
-0.00125434
-0.00123192
-0.00120894
-0.00118539
-0.00116122
-0.00113638
-0.00111082
-0.00108448
-0.00105732
-0.00102931
-0.00100046
-0.000970855
-0.000940635
-0.000910147
-0.000880026
-0.000848792
0.00224644
0.00210414
0.00195114
0.00181888
0.00169972
0.00158449
0.00146746
0.00134395
0.00120938
0.00105929
0.000889297
0.000695093
0.000472348
0.000216719
-7.61118e-05
-0.000410317
-0.000789761
-0.00121777
-0.0016969
-0.00222863
-0.00281313
-0.00344898
-0.00413305
-0.0048603
-0.00562378
-0.00641466
-0.00722233
-0.00803465
-0.00883818
-0.00961851
-0.0103606
-0.0110491
-0.011669
-0.0122056
-0.012645
-0.0129749
-0.0131842
-0.0132641
-0.0132076
-0.0130105
-0.0126714
-0.012192
-0.0115768
-0.0108331
-0.00997143
-0.0090051
-0.0079499
-0.0068239
-0.00564691
-0.00443995
-0.00322462
-0.00202253
-0.000854581
0.000259621
0.00130229
0.00225789
0.00311343
0.00385858
0.0044856
0.00498919
0.00536608
0.00561468
0.0057346
0.00572625
0.00559038
0.00532828
0.0049417
0.00443306
0.00380586
0.00306494
0.00221718
0.00127212
0.000242385
-0.000855974
-0.00200335
-0.00317667
-0.00434979
-0.0054941
-0.00657938
-0.00757492
-0.00845078
-0.00917919
-0.00973616
-0.010103
-0.0102669
-0.0102248
-0.0099827
-0.00955678
-0.00897345
-0.00826831
-0.00748393
-0.00666635
-0.00586069
-0.00510658
-0.00443419
-0.00386199
-0.00339643
-0.00303377
-0.00276308
-0.00256976
-0.00243853
-0.00235545
-0.00230887
-0.00228948
-0.00228986
-0.00230414
-0.00232758
-0.00235628
-0.00238692
-0.00241682
-0.0024438
-0.00246613
-0.00248252
-0.00249201
-0.00249401
-0.00248829
-0.00247491
-0.00245422
-0.00242686
-0.00239363
-0.00235551
-0.00231356
-0.00226886
-0.00222248
-0.00217539
-0.00212848
-0.00208249
-0.00203805
-0.00199562
-0.00195553
-0.00191798
-0.00188305
-0.00185075
-0.00182099
-0.00179363
-0.00176849
-0.00174536
-0.00172401
-0.00170421
-0.00168572
-0.00166833
-0.00165182
-0.001636
-0.00162068
-0.00160571
-0.00159095
-0.00157625
-0.00156152
-0.00154665
-0.00153158
-0.00151622
-0.00150052
-0.00148444
-0.00146794
-0.00145099
-0.00143357
-0.00141567
-0.00139727
-0.00137838
-0.00135899
-0.0013391
-0.0013187
-0.00129781
-0.00127643
-0.00125453
-0.00123213
-0.0012092
-0.00118573
-0.00116167
-0.00113699
-0.00111164
-0.00108557
-0.00105873
-0.0010311
-0.00100266
-0.000973478
-0.00094367
-0.000913467
-0.000882969
-0.000854244
0.00237423
0.00221138
0.00203802
0.00189035
0.00175839
0.00163036
0.00149858
0.00135674
0.00119875
0.00101879
0.000811276
0.000570822
0.000292185
-2.9746e-05
-0.000399862
-0.00082269
-0.00130218
-0.00184146
-0.00244252
-0.00310596
-0.0038307
-0.00461381
-0.00545034
-0.00633328
-0.0072536
-0.00820039
-0.00916102
-0.0101214
-0.0110665
-0.0119802
-0.0128462
-0.013648
-0.0143696
-0.0149955
-0.0155111
-0.0159034
-0.016161
-0.0162746
-0.0162372
-0.0160443
-0.015695
-0.0151914
-0.0145382
-0.0137439
-0.0128199
-0.011781
-0.0106444
-0.00943019
-0.00815996
-0.00685681
-0.00554444
-0.00424643
-0.00298558
-0.00178313
-0.000658225
0.000372645
0.00129593
0.00210114
0.00278082
0.00333024
0.00374695
0.00403032
0.00418089
0.00419991
0.00408881
0.00384914
0.00348264
0.00299146
0.00237859
0.0016483
0.000806806
-0.000136961
-0.00117081
-0.00227888
-0.00344149
-0.00463516
-0.005833
-0.00700533
-0.0081205
-0.00914605
-0.01005
-0.0108023
-0.0113762
-0.0117507
-0.0119098
-0.0118467
-0.0115646
-0.0110769
-0.0104083
-0.00959398
-0.00867831
-0.00771152
-0.00674535
-0.00582776
-0.00499789
-0.00428233
-0.00369355
-0.00323098
-0.00288401
-0.00263602
-0.00246829
-0.0023629
-0.00230441
-0.00228026
-0.00228058
-0.00229765
-0.00232541
-0.00235911
-0.00239487
-0.00242959
-0.00246084
-0.00248671
-0.0025058
-0.00251712
-0.00252011
-0.00251457
-0.00250064
-0.00247881
-0.00244982
-0.00241462
-0.00237431
-0.00233008
-0.00228311
-0.00223453
-0.00218542
-0.00213668
-0.00208911
-0.00204331
-0.00199976
-0.00195877
-0.00192052
-0.00188508
-0.0018524
-0.00182239
-0.00179488
-0.00176966
-0.0017465
-0.00172516
-0.00170538
-0.00168693
-0.00166957
-0.00165309
-0.00163728
-0.00162197
-0.001607
-0.00159221
-0.00157748
-0.00156271
-0.00154779
-0.00153266
-0.00151723
-0.00150147
-0.00148532
-0.00146874
-0.00145172
-0.00143424
-0.00141627
-0.00139781
-0.00137886
-0.00135941
-0.00133947
-0.00131904
-0.00129812
-0.00127671
-0.00125482
-0.00123244
-0.00120955
-0.00118616
-0.00116221
-0.0011377
-0.00111256
-0.00108676
-0.00106024
-0.00103296
-0.00100491
-0.000976109
-0.000946658
-0.000916691
-0.000885799
-0.000859309
0.00236164
0.00218444
0.00199653
0.0018371
0.00169403
0.00155316
0.001405
0.00124162
0.00105549
0.00083946
0.000586825
0.000291218
-5.34107e-05
-0.00045277
-0.000912123
-0.00143609
-0.00202843
-0.0026917
-0.00342704
-0.00423382
-0.00510947
-0.00604934
-0.00704656
-0.00809217
-0.00917515
-0.0102827
-0.0114003
-0.0125124
-0.0136024
-0.0146528
-0.0156463
-0.0165652
-0.0173925
-0.0181117
-0.0187076
-0.0191662
-0.0194756
-0.0196258
-0.0196094
-0.0194216
-0.0190619
-0.0185321
-0.0178376
-0.0169875
-0.0159944
-0.0148745
-0.0136466
-0.0123326
-0.0109563
-0.00954303
-0.00811871
-0.00670927
-0.00533966
-0.00403311
-0.0028104
-0.00168931
-0.000684184
0.00019416
0.000938383
0.00154428
0.00201027
0.0023367
0.00252519
0.00257794
0.00249717
0.00228484
0.00194282
0.00147304
0.000878046
0.000161557
-0.000670805
-0.00161067
-0.00264623
-0.00376181
-0.0049376
-0.0061497
-0.00737049
-0.00856921
-0.00971288
-0.0107674
-0.0116989
-0.0124751
-0.0130669
-0.013451
-0.013609
-0.0135307
-0.0132163
-0.0126767
-0.0119342
-0.0110227
-0.009987
-0.00887987
-0.00775817
-0.00667722
-0.00568492
-0.00481661
-0.00409212
-0.00351568
-0.00307852
-0.00276313
-0.00254798
-0.00241136
-0.00233385
-0.00229942
-0.00229536
-0.00231178
-0.0023411
-0.00237756
-0.00241653
-0.00245444
-0.0024885
-0.00251661
-0.00253722
-0.00254928
-0.00255221
-0.00254588
-0.00253051
-0.00250671
-0.00247534
-0.00243751
-0.00239444
-0.00234743
-0.00229778
-0.0022467
-0.00219531
-0.00214457
-0.00209528
-0.00204805
-0.00200335
-0.00196146
-0.00192253
-0.00188661
-0.00185362
-0.00182342
-0.00179582
-0.00177058
-0.00174745
-0.00172617
-0.00170647
-0.0016881
-0.00167081
-0.0016544
-0.00163864
-0.00162336
-0.0016084
-0.00159361
-0.00157886
-0.00156405
-0.00154909
-0.0015339
-0.00151841
-0.00150257
-0.00148635