/*--------------------------------*- C++ -*----------------------------------*\
  =========                 |
  \\      /  F ield         | OpenFOAM: The Open Source CFD Toolbox
   \\    /   O peration     | Website:  https://openfoam.org
    \\  /    A nd           | Version:  8
     \\/     M anipulation  |
\*---------------------------------------------------------------------------*/
FoamFile
{
    version     2.0;
    format      ascii;
    class       surfaceScalarField;
    location    "0.74";
    object      phi;
}
// * * * * * * * * * * * * * * * * * * * * * * * * * * * * * * * * * * * * * //

dimensions      [0 3 -1 0 0 0 0];

internalField   nonuniform List<scalar> 
24170
(
-2.47599e-12
2.47599e-12
4.97451e-12
-7.4505e-12
2.11863e-11
-1.62118e-11
4.4387e-11
-2.32006e-11
7.33104e-11
-2.89235e-11
1.07207e-10
-3.38966e-11
1.45612e-10
-3.84046e-11
1.88238e-10
-4.26267e-11
2.34947e-10
-4.67088e-11
2.85775e-10
-5.08276e-11
3.41001e-10
-5.5226e-11
4.01216e-10
-6.02149e-11
4.67295e-10
-6.60794e-11
5.39817e-10
-7.2522e-11
6.15275e-10
-7.54575e-11
6.643e-10
-4.90254e-11
5.8358e-10
8.07201e-11
1.57295e-09
-9.89366e-10
-2.41607e-12
4.89206e-12
2.28202e-11
-3.26868e-11
7.46939e-11
-6.80855e-11
1.4799e-10
-9.64972e-11
2.39023e-10
-1.19956e-10
3.45362e-10
-1.40236e-10
4.65381e-10
-1.58423e-10
5.979e-10
-1.75146e-10
7.42045e-10
-1.90854e-10
8.97209e-10
-2.05992e-10
1.06299e-09
-2.21009e-10
1.23887e-09
-2.36091e-10
1.42291e-09
-2.50121e-10
1.6075e-09
-2.57116e-10
1.7648e-09
-2.32753e-10
1.79848e-09
-8.27014e-11
1.34521e-09
5.33984e-10
3.51186e-09
-5.937e-10
2.28508e-12
2.60698e-12
5.03545e-11
-8.07561e-11
1.43757e-10
-1.61488e-10
2.74183e-10
-2.26923e-10
4.35458e-10
-2.81231e-10
6.23217e-10
-3.27996e-10
8.34312e-10
-3.69518e-10
1.0662e-09
-4.07029e-10
1.31659e-09
-4.41252e-10
1.58324e-09
-4.72636e-10
1.86338e-09
-5.01153e-10
2.15248e-09
-5.25191e-10
2.44062e-09
-5.38263e-10
2.703e-09
-5.1949e-10
2.87467e-09
-4.04427e-10
2.78564e-09
6.33294e-12
1.99154e-09
1.32807e-09
5.52357e-09
-2.01712e-11
1.14923e-11
-8.88531e-12
8.83408e-11
-1.57605e-10
2.29627e-10
-3.02774e-10
4.24398e-10
-4.21694e-10
6.63929e-10
-5.20763e-10
9.41677e-10
-6.05744e-10
1.25255e-09
-6.80385e-10
1.59202e-09
-7.46504e-10
1.95556e-09
-8.04796e-10
2.33796e-09
-8.55028e-10
2.73209e-09
-8.95288e-10
3.12628e-09
-9.19378e-10
3.49799e-09
-9.0997e-10
3.79977e-09
-8.21273e-10
3.92899e-09
-5.33649e-10
3.67306e-09
2.62263e-10
2.64756e-09
2.35357e-09
7.49846e-09
6.72674e-10
2.53006e-11
-3.4186e-11
1.37265e-10
-2.69569e-10
3.33073e-10
-4.98582e-10
5.99302e-10
-6.87923e-10
9.24631e-10
-8.46092e-10
1.30008e-09
-9.81189e-10
1.71811e-09
-1.09842e-09
2.17155e-09
-1.19994e-09
2.65258e-09
-1.28583e-09
3.15157e-09
-1.35402e-09
3.655e-09
-1.39871e-09
4.14129e-09
-1.40566e-09
4.57243e-09
-1.34111e-09
4.87804e-09
-1.12688e-09
4.92867e-09
-5.84281e-10
4.50784e-09
6.83098e-10
3.34597e-09
3.51544e-09
9.35215e-09
1.49228e-09
4.35376e-11
-7.77235e-11
1.97122e-10
-4.23153e-10
4.54042e-10
-7.55502e-10
7.9836e-10
-1.03224e-09
1.21608e-09
-1.26382e-09
1.69551e-09
-1.46062e-09
2.22618e-09
-1.62909e-09
2.79745e-09
-1.77122e-09
3.39717e-09
-1.88554e-09
4.00983e-09
-1.96668e-09
4.61373e-09
-2.00261e-09
5.17567e-09
-1.9676e-09
5.6418e-09
-1.80725e-09
5.92332e-09
-1.4084e-09
5.8801e-09
-5.41066e-10
5.32322e-09
1.23998e-09
4.10553e-09
4.73313e-09
1.10374e-08
2.42032e-09
6.58233e-11
-1.43547e-10
2.67255e-10
-6.24585e-10
5.91376e-10
-1.07962e-09
1.01943e-09
-1.46029e-09
1.53462e-09
-1.779e-09
2.12225e-09
-2.04826e-09
2.7684e-09
-2.27524e-09
3.45823e-09
-2.46104e-09
4.17419e-09
-2.6015e-09
4.89374e-09
-2.68624e-09
5.58586e-09
-2.69473e-09
6.20541e-09
-2.58715e-09
6.68495e-09
-2.28679e-09
6.92513e-09
-1.64858e-09
6.79168e-09
-4.0762e-10
6.14266e-09
1.88901e-09
4.93845e-09
5.93734e-09
1.25242e-08
3.45158e-09
9.15036e-11
-2.3505e-10
3.4619e-10
-8.79272e-10
7.42493e-10
-1.47593e-09
1.25828e-09
-1.97608e-09
1.87378e-09
-2.3945e-09
2.57104e-09
-2.74552e-09
3.33221e-09
-3.03641e-09
4.13757e-09
-3.26641e-09
4.96343e-09
-3.42736e-09
5.77949e-09
-3.5023e-09
6.54519e-09
-3.46043e-09
7.20478e-09
-3.24675e-09
7.68164e-09
-2.76364e-09
7.87524e-09
-1.84218e-09
7.67076e-09
-2.03131e-10
6.98103e-09
2.57873e-09
5.84996e-09
7.06842e-09
1.37919e-08
4.58231e-09
1.19611e-10
-3.54661e-10
4.3147e-10
-1.19113e-09
9.03051e-10
-1.94751e-09
1.50813e-09
-2.58116e-09
2.22373e-09
-3.1101e-09
3.02843e-09
-3.55022e-09
3.90013e-09
-3.90811e-09
4.81381e-09
-4.18008e-09
5.73923e-09
-4.35278e-09
6.6383e-09
-4.40137e-09
7.46188e-09
-4.28402e-09
8.14638e-09
-3.93125e-09
8.61173e-09
-3.229e-09
8.76526e-09
-1.99572e-09
8.52049e-09
4.16473e-11
7.84378e-09
3.25544e-09
6.83707e-09
8.07513e-09
1.48227e-08
5.80626e-09
1.48819e-10
-5.0348e-10
5.19505e-10
-1.56182e-09
1.06663e-09
-2.49464e-09
1.75914e-09
-3.27367e-09
2.57063e-09
-3.92159e-09
3.47613e-09
-4.45572e-09
4.44916e-09
-4.88114e-09
5.45935e-09
-5.19027e-09
6.47012e-09
-5.36354e-09
7.43636e-09
-5.36761e-09
8.30235e-09
-5.15e-09
9.00052e-09
-4.62941e-09
9.45349e-09
-3.68197e-09
9.58364e-09
-2.12587e-09
9.3368e-09
2.88488e-10
8.72564e-09
3.86661e-09
7.8877e-09
8.91306e-09
1.5599e-08
7.11141e-09
1.77588e-10
-6.81068e-10
6.05473e-10
-1.9897e-09
1.22448e-09
-3.11364e-09
1.99802e-09
-4.04722e-09
2.89615e-09
-4.81972e-09
3.89043e-09
-5.45e-09
4.95025e-09
-5.94096e-09
6.04032e-09
-6.28034e-09
7.11853e-09
-6.44176e-09
8.13446e-09
-6.38354e-09
9.02864e-09
-6.04418e-09
9.73392e-09
-5.33469e-09
1.01811e-08
-4.12916e-09
1.03123e-08
-2.25702e-09
1.01052e-08
4.95541e-10
9.60887e-09
4.36294e-09
8.97864e-09
9.54329e-09
1.61014e-08
8.47625e-09
1.7096e-10
-8.52028e-10
5.71594e-10
-2.39034e-09
1.14322e-09
-3.68526e-09
1.84998e-09
-4.75398e-09
2.6638e-09
-5.63353e-09
3.55829e-09
-6.34449e-09
4.50493e-09
-6.8876e-09
5.47084e-09
-7.24625e-09
6.41743e-09
-7.38835e-09
7.29979e-09
-7.2659e-09
8.06743e-09
-6.81182e-09
8.66722e-09
-5.93449e-09
9.05024e-09
-4.51217e-09
9.18418e-09
-2.39097e-09
9.07235e-09
6.07376e-10
8.77588e-09
4.65941e-09
8.42961e-09
9.88956e-09
1.62984e-08
8.23259e-09
2.14468e-10
-1.0665e-09
7.11381e-10
-2.88725e-09
1.41036e-09
-4.38425e-09
2.26601e-09
-5.60963e-09
3.24361e-09
-6.61113e-09
4.31082e-09
-7.4117e-09
5.43275e-09
-8.00953e-09
6.56949e-09
-8.38298e-09
7.675e-09
-8.49386e-09
8.69748e-09
-8.28838e-09
9.58157e-09
-7.69591e-09
1.02735e-08
-6.6264e-09
1.07302e-08
-4.96887e-09
1.09335e-08
-2.59424e-09
1.0908e-08
6.32864e-10
1.07386e-08
4.82881e-09
1.0577e-08
1.00511e-08
1.62523e-08
1.06231e-08
2.59382e-10
-1.32588e-09
8.55413e-10
-3.48328e-09
1.68263e-09
-5.21147e-09
2.68476e-09
-6.61176e-09
3.82035e-09
-7.74672e-09
5.05128e-09
-8.64263e-09
6.33687e-09
-9.29513e-09
7.6312e-09
-9.67731e-09
8.88263e-09
-9.74529e-09
1.00354e-08
-9.44115e-09
1.10337e-08
-8.69418e-09
1.18287e-08
-7.42147e-09
1.23898e-08
-5.52997e-09
1.27183e-08
-2.92265e-09
1.28622e-08
4.88872e-10
1.29276e-08
4.76347e-09
1.30755e-08
9.90316e-09
1.5828e-08
1.34998e-08
2.95579e-10
-1.62146e-09
9.69651e-10
-4.15735e-09
1.89421e-09
-6.13603e-09
3.00281e-09
-7.72035e-09
4.249e-09
-8.99291e-09
5.59106e-09
-9.98469e-09
6.98532e-09
-1.06894e-08
8.38357e-09
-1.10756e-08
9.73333e-09
-1.10951e-08
1.09809e-08
-1.06887e-08
1.2077e-08
-9.79027e-09
1.29853e-08
-8.32979e-09
1.36936e-08
-6.23826e-09
1.42257e-08
-3.45475e-09
1.46521e-08
6.24759e-11
1.50926e-08
4.32295e-09
1.5709e-08
9.28674e-09
1.48556e-08
1.66814e-08
3.0247e-10
-1.92393e-09
9.8678e-10
-4.84166e-09
1.91567e-09
-7.06492e-09
3.01907e-09
-8.82375e-09
4.25107e-09
-1.02249e-08
5.57221e-09
-1.13058e-08
6.94249e-09
-1.20597e-08
8.31919e-09
-1.24522e-08
9.65788e-09
-1.24337e-08
1.09164e-08
-1.19473e-08
1.20614e-08
-1.09353e-08
1.30767e-08
-9.3451e-09
1.3973e-08
-7.13449e-09
1.47961e-08
-4.27787e-09
1.56321e-08
-7.73563e-10
1.66062e-08
3.34886e-09
1.787e-08
8.02293e-09
1.31434e-08
1.95822e-08
2.44602e-10
-2.16853e-09
7.91365e-10
-5.38843e-09
1.52567e-09
-7.79923e-09
2.39113e-09
-9.68921e-09
3.35453e-09
-1.11883e-08
4.38998e-09
-1.23413e-08
5.47309e-09
-1.31428e-08
6.57941e-09
-1.35586e-08
7.68592e-09
-1.35403e-08
8.7749e-09
-1.30363e-08
9.83965e-09
-1.2e-08
1.08912e-08
-1.03966e-08
1.19646e-08
-8.20795e-09
1.31239e-08
-5.43713e-09
1.44621e-08
-2.11182e-09
1.60973e-08
1.71369e-09
1.81614e-08
5.95889e-09
1.05207e-08
2.07841e-08
6.97599e-11
-2.23829e-09
2.16e-10
-5.53467e-09
4.04885e-10
-7.98811e-09
6.25212e-10
-9.90954e-09
8.76557e-10
-1.14397e-08
1.16362e-09
-1.26283e-08
1.49426e-09
-1.34734e-08
1.87935e-09
-1.39437e-08
2.33403e-09
-1.39949e-08
2.88013e-09
-1.35823e-08
3.5494e-09
-1.26693e-08
4.38696e-09
-1.12342e-08
5.4538e-09
-9.27479e-09
6.82754e-09
-6.81086e-09
8.60032e-09
-3.8846e-09
1.08735e-08
-5.59464e-10
1.37495e-08
3.08285e-09
6.94739e-09
1.73228e-08
-2.77763e-10
-1.96053e-09
-9.07123e-10
-4.9053e-09
-1.76275e-09
-7.13249e-09
-2.77213e-09
-8.90016e-09
-3.88033e-09
-1.03314e-08
-5.03461e-09
-1.14741e-08
-6.17828e-09
-1.23298e-08
-7.24839e-09
-1.28736e-08
-8.17502e-09
-1.30683e-08
-8.88135e-09
-1.2876e-08
-9.28412e-09
-1.22665e-08
-9.29462e-09
-1.12237e-08
-8.82028e-09
-9.74913e-09
-7.76719e-09
-7.86396e-09
-6.04375e-09
-5.60803e-09
-3.56551e-09
-3.03771e-09
-2.60757e-10
-2.21905e-10
2.76029e-09
3.92634e-09
-4.02442e-10
-1.55808e-09
-1.31302e-09
-3.99472e-09
-2.55545e-09
-5.89007e-09
-4.03626e-09
-7.41935e-09
-5.69125e-09
-8.67646e-09
-7.46245e-09
-9.70286e-09
-9.28887e-09
-1.05033e-08
-1.1103e-08
-1.10594e-08
-1.28304e-08
-1.1341e-08
-1.43907e-08
-1.13157e-08
-1.57003e-08
-1.09569e-08
-1.6675e-08
-1.02489e-08
-1.72335e-08
-9.19065e-09
-1.73003e-08
-7.79712e-09
-1.68093e-08
-6.09904e-09
-1.57062e-08
-4.14079e-09
-1.39508e-08
-1.97737e-09
3.29364e-10
-1.15198e-08
-4.2917e-10
-1.12891e-09
-1.40663e-09
-3.01726e-09
-2.75357e-09
-4.54313e-09
-4.37807e-09
-5.79484e-09
-6.21812e-09
-6.83641e-09
-8.21858e-09
-7.70241e-09
-1.03216e-08
-8.4003e-09
-1.24629e-08
-8.91815e-09
-1.45707e-08
-9.23313e-09
-1.65674e-08
-9.31906e-09
-1.83715e-08
-9.15277e-09
-1.99016e-08
-8.71887e-09
-2.10792e-08
-8.01301e-09
-2.1833e-08
-7.04333e-09
-2.21016e-08
-5.83045e-09
-2.18363e-08
-4.40606e-09
-2.1003e-08
-2.81068e-09
-1.09104e-09
-1.95826e-08
-3.81208e-10
-7.47706e-10
-1.26462e-09
-2.13385e-09
-2.50205e-09
-3.30571e-09
-4.01702e-09
-4.27986e-09
-5.7569e-09
-5.09652e-09
-7.675e-09
-5.78432e-09
-9.72267e-09
-6.35262e-09
-1.18457e-08
-6.79514e-09
-1.3983e-08
-7.09577e-09
-1.60677e-08
-7.23443e-09
-1.80284e-08
-7.19206e-09
-1.97927e-08
-6.9546e-09
-2.129e-08
-6.51566e-09
-2.24553e-08
-5.87802e-09
-2.32319e-08
-5.05388e-09
-2.3574e-08
-4.064e-09
-2.34484e-08
-2.93622e-09
-1.704e-09
-2.28355e-08
-2.99555e-10
-4.48151e-10
-1.01607e-09
-1.41734e-09
-2.04416e-09
-2.27762e-09
-3.32572e-09
-2.9983e-09
-4.81839e-09
-3.60386e-09
-6.48471e-09
-4.118e-09
-8.28648e-09
-4.55085e-09
-1.01814e-08
-4.90021e-09
-1.21216e-08
-5.15553e-09
-1.40538e-08
-5.30227e-09
-1.59201e-08
-5.32573e-09
-1.76607e-08
-5.21405e-09
-1.92159e-08
-4.96045e-09
-2.05295e-08
-4.56441e-09
-2.15512e-08
-4.03216e-09
-2.2239e-08
-3.37623e-09
-2.25607e-08
-2.61446e-09
-1.76941e-09
-2.24953e-08
-2.11929e-10
-2.36222e-10
-7.47483e-10
-8.81782e-10
-1.54216e-09
-1.48295e-09
-2.55349e-09
-1.98696e-09
-3.74787e-09
-2.40949e-09
-5.09611e-09
-2.76975e-09
-6.56956e-09
-3.07741e-09
-8.1371e-09
-3.33267e-09
-9.76352e-09
-3.52911e-09
-1.14089e-08
-3.65685e-09
-1.30294e-08
-3.70525e-09
-1.45783e-08
-3.66519e-09
-1.60081e-08
-3.5306e-09
-1.7273e-08
-3.29952e-09
-1.83307e-08
-2.97449e-09
-1.91445e-08
-2.5624e-09
-1.96851e-08
-2.0739e-09
-1.52315e-09
-1.99314e-08
-1.34166e-10
-1.02055e-10
-5.07061e-10
-5.08888e-10
-1.08596e-09
-9.04043e-10
-1.83972e-09
-1.23321e-09
-2.74173e-09
-1.50747e-09
-3.76978e-09
-1.7417e-09
-4.90322e-09
-1.94397e-09
-6.12034e-09
-2.11554e-09
-7.39665e-09
-2.2528e-09
-8.70404e-09
-2.34945e-09
-1.00109e-08
-2.3984e-09
-1.12829e-08
-2.39319e-09
-1.24843e-08
-2.32915e-09
-1.35798e-08
-2.20407e-09
-1.45358e-08
-2.01852e-09
-1.53222e-08
-1.77592e-09
-1.5914e-08
-1.48212e-09
-1.14526e-09
-1.62919e-08
-7.34243e-11
-2.86312e-11
-3.15498e-10
-2.66815e-10
-7.14121e-10
-5.05419e-10
-1.24578e-09
-7.01554e-10
-1.88971e-09
-8.63536e-10
-2.62955e-09
-1.00187e-09
-3.45107e-09
-1.12244e-09
-4.34e-09
-1.22662e-09
-5.28025e-09
-1.31255e-09
-6.25314e-09
-1.37656e-09
-7.2372e-09
-1.41434e-09
-8.20859e-09
-1.4218e-09
-9.14195e-09
-1.39579e-09
-1.00115e-08
-1.3345e-09
-1.07923e-08
-1.23771e-09
-1.14614e-08
-1.10688e-09
-1.19986e-08
-9.4489e-10
-7.55913e-10
-1.23879e-08
-3.13162e-11
2.68505e-12
-1.76447e-10
-1.21684e-10
-4.33866e-10
-2.48001e-10
-7.85548e-10
-3.49872e-10
-1.21597e-09
-4.33116e-10
-1.71368e-09
-5.04149e-10
-2.26954e-09
-5.66585e-10
-2.87476e-09
-6.21406e-10
-3.51953e-09
-6.67777e-10
-4.19227e-09
-7.03825e-10
-4.87934e-09
-7.27262e-10
-5.56528e-09
-7.35861e-10
-6.23327e-09
-7.27806e-10
-6.86582e-09
-7.01938e-10
-7.44565e-09
-6.57889e-10
-7.9564e-09
-5.96127e-10
-8.3834e-09
-5.17887e-10
-4.24967e-10
-8.71435e-09
-6.37074e-12
9.05579e-12
-8.44646e-11
-4.35898e-11
-2.36162e-10
-9.63029e-11
-4.48161e-10
-1.37873e-10
-7.09832e-10
-1.71445e-10
-1.01391e-09
-2.00068e-10
-1.35507e-09
-2.25434e-10
-1.72843e-09
-2.48043e-10
-2.12861e-09
-2.67595e-10
-2.5491e-09
-2.83332e-10
-2.98206e-09
-2.943e-10
-3.41838e-09
-2.99546e-10
-3.84792e-09
-2.98263e-10
-4.25996e-09
-2.89894e-10
-4.64366e-09
-2.74194e-10
-4.98854e-09
-2.51243e-10
-5.285e-09
-2.21427e-10
-1.85328e-10
-5.52464e-09
4.56764e-12
4.48815e-12
-3.0317e-11
-8.70513e-12
-1.05473e-10
-2.11474e-11
-2.12621e-10
-3.07246e-11
-3.45717e-10
-3.83484e-11
-5.00939e-10
-4.48461e-11
-6.75712e-10
-5.0661e-11
-8.67825e-10
-5.59306e-11
-1.07483e-09
-6.05935e-11
-1.29368e-09
-6.4475e-11
-1.52064e-09
-6.73487e-11
-1.7512e-09
-6.89835e-11
-1.98028e-09
-6.91766e-11
-2.2024e-09
-6.77791e-11
-2.41188e-09
-6.47094e-11
-2.60317e-09
-5.99602e-11
-2.77102e-09
-5.35732e-11
-4.5647e-11
-2.9107e-09
4.48815e-12
-4.21698e-12
-2.53644e-11
-5.6089e-11
-9.44374e-11
-1.39284e-10
-1.89945e-10
-2.45875e-10
-3.06469e-10
-3.70944e-10
-4.38292e-10
-5.07276e-10
-5.76453e-10
-6.44232e-10
-7.08941e-10
-7.68901e-10
-8.22474e-10
-8.68121e-10
6.25749e-11
-6.25749e-11
2.20281e-10
-1.57706e-10
4.35966e-10
-2.15685e-10
6.73747e-10
-2.37781e-10
9.04571e-10
-2.30825e-10
1.106e-09
-2.01426e-10
1.26137e-09
-1.55375e-10
1.3589e-09
-9.75286e-11
1.39068e-09
-3.1782e-11
1.35168e-09
3.90064e-11
1.23906e-09
1.12615e-10
1.05133e-09
1.87731e-10
7.87761e-10
2.63569e-10
4.47913e-10
3.39848e-10
3.12665e-11
4.16646e-10
-4.63043e-10
4.94309e-10
-1.03635e-09
5.73309e-10
-1.69047e-09
6.54121e-10
-2.42763e-09
7.37159e-10
-3.25031e-09
8.2268e-10
-4.16102e-09
9.10708e-10
-5.16201e-09
1.00099e-09
-6.25498e-09
1.09297e-09
-7.44073e-09
1.18575e-09
-8.71885e-09
1.27812e-09
-1.00874e-08
1.36858e-09
-1.15427e-08
1.4553e-09
-1.3079e-08
1.53626e-09
-1.46882e-08
1.60921e-09
-1.636e-08
1.67175e-09
-1.80813e-08
1.72139e-09
-1.9837e-08
1.75566e-09
-2.16091e-08
1.77211e-09
-2.33776e-08
1.76846e-09
-2.51202e-08
1.74266e-09
-2.68132e-08
1.693e-09
-2.84314e-08
1.61816e-09
-2.99487e-08
1.51732e-09
-3.13389e-08
1.39022e-09
-3.25761e-08
1.23719e-09
-3.36353e-08
1.05921e-09
-3.44932e-08
8.57889e-10
-3.51286e-08
6.35432e-10
-3.55233e-08
3.94644e-10
-3.56624e-08
1.39134e-10
-3.55334e-08
-1.28973e-10
-3.51297e-08
-4.0375e-10
-3.44482e-08
-6.81505e-10
-3.34901e-08
-9.58087e-10
-3.22609e-08
-1.22922e-09
-3.077e-08
-1.49091e-09
-2.90304e-08
-1.73953e-09
-2.70585e-08
-1.9719e-09
-2.48732e-08
-2.18535e-09
-2.24954e-08
-2.3778e-09
-1.99476e-08
-2.54777e-09
-1.72533e-08
-2.69431e-09
-1.44363e-08
-2.81703e-09
-1.15203e-08
-2.91594e-09
-8.52899e-09
-2.99136e-09
-5.4852e-09
-3.04379e-09
-2.41154e-09
-3.07366e-09
6.69702e-10
-3.08124e-09
3.73678e-09
-3.06707e-09
6.76761e-09
-3.03084e-09
9.73937e-09
-2.97176e-09
1.26288e-08
-2.88938e-09
1.54114e-08
-2.78268e-09
1.80617e-08
-2.65032e-09
2.05526e-08
-2.49089e-09
2.28557e-08
-2.30308e-09
2.49417e-08
-2.08595e-09
2.67808e-08
-1.83917e-09
2.83441e-08
-1.56327e-09
2.9604e-08
-1.25992e-09
3.05361e-08
-9.32104e-10
3.11204e-08
-5.84277e-10
3.13432e-08
-2.22737e-10
3.11966e-08
1.46565e-10
3.06844e-08
5.12192e-10
2.98178e-08
8.66557e-10
2.86187e-08
1.19918e-09
2.71187e-08
1.5e-09
2.5359e-08
1.75965e-09
2.33889e-08
1.97011e-09
2.12636e-08
2.12532e-09
1.90418e-08
2.22174e-09
1.67831e-08
2.2587e-09
1.45447e-08
2.23846e-09
1.23786e-08
2.1661e-09
1.03296e-08
2.04903e-09
8.4332e-09
1.89636e-09
6.71512e-09
1.71808e-09
5.19092e-09
1.5242e-09
3.86683e-09
1.32409e-09
2.74087e-09
1.12596e-09
1.80429e-09
9.36584e-10
1.04289e-09
7.61403e-10
4.38263e-10
6.04624e-10
-3.11386e-11
4.69402e-10
-3.89014e-10
3.57876e-10
-6.59983e-10
2.70969e-10
-8.68194e-10
2.08211e-10
-1.03587e-09
1.67677e-10
-1.18194e-09
1.46067e-10
-1.32102e-09
1.39082e-10
-1.463e-09
1.41981e-10
-1.61317e-09
1.50169e-10
-1.77285e-09
1.59681e-10
-1.94033e-09
1.67478e-10
-2.11186e-09
1.71529e-10
-2.28259e-09
1.7073e-10
-2.44733e-09
1.64741e-10
-2.60111e-09
1.53783e-10
-2.73956e-09
1.38451e-10
-2.85913e-09
1.1957e-10
-2.95721e-09
9.80732e-11
-3.03213e-09
7.49275e-11
-3.08321e-09
5.10717e-11
-3.11058e-09
2.73728e-11
-3.11525e-09
4.6759e-12
-3.09867e-09
-1.65845e-11
-3.06303e-09
-3.56392e-11
-3.01077e-09
-5.22601e-11
-2.94458e-09
-6.61907e-11
-2.86725e-09
-7.73322e-11
-2.78154e-09
-8.57051e-11
-2.69011e-09
-9.14287e-11
-2.59541e-09
-9.47014e-11
-2.49963e-09
-9.57783e-11
-2.40468e-09
-9.49507e-11
-2.31216e-09
-9.2527e-11
-2.22334e-09
-8.88166e-11
-2.13922e-09
-8.41166e-11
-2.06052e-09
-7.87024e-11
-1.9877e-09
-7.28205e-11
-1.92102e-09
-6.66853e-11
-1.86054e-09
-6.04777e-11
-1.80619e-09
-5.43451e-11
-1.75779e-09
-4.84038e-11
-1.71505e-09
-4.27418e-11
-1.67762e-09
-3.7422e-11
-1.64514e-09
-3.24858e-11
-1.61718e-09
-2.7957e-11
-1.59334e-09
-2.38449e-11
-1.57319e-09
-2.01475e-11
-1.55633e-09
-1.68544e-11
-1.54239e-09
-1.39486e-11
-1.53098e-09
-1.14089e-11
-1.52177e-09
-9.21104e-12
-1.51444e-09
-7.32906e-12
-1.5087e-09
-5.73629e-12
-1.50429e-09
-4.4063e-12
-1.50098e-09
-3.31228e-12
-1.49856e-09
-2.42667e-12
-1.49683e-09
-1.72428e-12
-1.49565e-09
-1.17962e-12
-1.49488e-09
-7.66842e-13
-1.49443e-09
-4.58696e-13
-1.49421e-09
-2.20772e-13
-1.49415e-09
-5.03767e-14
-1.49426e-09
1.01548e-13
-1.49452e-09
2.60221e-13
-1.49497e-09
4.48915e-13
-1.49564e-09
6.71163e-13
-1.49658e-09
9.42921e-13
-1.49782e-09
1.24204e-12
-1.49934e-09
1.51699e-12
-1.50102e-09
1.67933e-12
-1.50261e-09
1.59513e-12
-1.5037e-09
1.08553e-12
-1.50364e-09
-5.46109e-14
-1.50141e-09
-2.22983e-12
-1.49578e-09
-5.63821e-12
-1.48497e-09
-1.08103e-11
-1.46659e-09
-1.83792e-11
-1.43693e-09
-2.9658e-11
-1.38888e-09
-4.80472e-11
-1.31328e-09
-7.55995e-11
-1.65725e-10
-1.14756e-09
1.18591e-10
-1.81166e-10
3.75739e-10
-4.14854e-10
6.95601e-10
-5.35547e-10
1.01714e-09
-5.59321e-10
1.28967e-09
-5.03348e-10
1.47217e-09
-3.83929e-10
1.53232e-09
-2.15527e-10
1.44525e-09
-1.04566e-11
1.19225e-09
2.21221e-10
7.59646e-10
4.71606e-10
1.37467e-10
7.34794e-10
-6.81472e-10
1.00667e-09
-1.70254e-09
1.28463e-09
-2.93e-09
1.56731e-09
-4.36761e-09
1.85425e-09
-6.01893e-09
2.14563e-09
-7.88748e-09
2.44187e-09
-9.97675e-09
2.74339e-09
-1.22899e-08
3.05029e-09
-1.48293e-08
3.36208e-09
-1.75961e-08
3.67752e-09
-2.05895e-08
3.99441e-09
-2.38061e-08
4.30959e-09
-2.72392e-08
4.61886e-09
-3.08782e-08
4.91706e-09
-3.47077e-08
5.19813e-09
-3.87077e-08
5.45529e-09
-4.28526e-08
5.68117e-09
-4.71115e-08
5.86806e-09
-5.14479e-08
6.00811e-09
-5.58201e-08
6.09362e-09
-6.01817e-08
6.11728e-09
-6.44821e-08
6.07247e-09
-6.86671e-08
5.9535e-09
-7.26804e-08
5.75591e-09
-7.6464e-08
5.47665e-09
-7.99602e-08
5.11429e-09
-8.3112e-08
4.66914e-09
-8.58651e-08
4.14336e-09
-8.81689e-08
3.54095e-09
-8.99774e-08
2.8677e-09
-9.12505e-08
2.13106e-09
-9.19551e-08
1.33999e-09
-9.20653e-08
5.04857e-10
-9.15629e-08
-3.6325e-10
-9.04393e-08
-1.25264e-09
-8.86932e-08
-2.14985e-09
-8.6332e-08
-3.04263e-09
-8.33712e-08
-3.91893e-09
-7.98331e-08
-4.76732e-09
-7.57467e-08
-5.57734e-09
-7.11465e-08
-6.33973e-09
-6.60717e-08
-7.04669e-09
-6.05651e-08
-7.69194e-09
-5.46721e-08
-8.27082e-09
-4.84396e-08
-8.78027e-09
-4.19152e-08
-9.21872e-09
-3.51463e-08
-9.58591e-09
-2.81796e-08
-9.88259e-09
-2.10607e-08
-1.01102e-08
-1.38339e-08
-1.02706e-08
-6.54209e-09
-1.03655e-08
7.72433e-10
-1.03958e-08
8.06682e-09
-1.03615e-08
1.52978e-08
-1.02618e-08
2.24214e-08
-1.00954e-08
2.93919e-08
-9.85986e-09
3.61605e-08
-9.55126e-09
4.26749e-08
-9.16475e-09
4.8879e-08
-8.69498e-09
5.47125e-08
-8.13656e-09
6.01113e-08
-7.48479e-09
6.50085e-08
-6.73636e-09
6.93353e-08
-5.89011e-09
7.30233e-08
-4.94787e-09
7.60063e-08
-3.91511e-09
7.82237e-08
-2.80164e-09
7.96229e-08
-1.62202e-09
8.01645e-08
-3.94964e-10
7.98243e-08
8.52321e-10
7.85982e-08
2.09267e-09
7.65039e-08
3.29349e-09
7.35834e-08
4.42049e-09
6.99039e-08
5.43917e-09
6.55571e-08
6.31691e-09
6.0657e-08
7.02538e-09
5.53359e-08
7.54289e-09
4.97381e-08
7.85649e-09
4.40132e-08
7.96333e-09
3.83081e-08
7.87126e-09
3.27589e-08
7.59821e-09
2.74846e-08
7.17066e-09
2.25815e-08
6.62114e-09
1.81205e-08
5.98525e-09
1.41458e-08
5.29874e-09
1.06768e-08
4.59502e-09
7.70981e-09
3.90354e-09
5.22222e-09
3.24899e-09
3.17557e-09
2.65127e-09
1.51941e-09
2.12556e-09
1.9505e-10
1.68224e-09
-8.60589e-10
1.32661e-09
-1.71065e-09
1.05828e-09
-2.4141e-09
8.71119e-10
-3.02208e-09
7.5405e-10
-3.57533e-09
6.92333e-10
-4.10288e-09
6.69525e-10
-4.62222e-09
6.69509e-10
-5.14071e-09
6.78176e-10
-5.6577e-09
6.8447e-10
-6.16693e-09
6.80752e-10
-6.65881e-09
6.62614e-10
-7.12243e-09
6.2836e-10
-7.547e-09
5.78354e-10
-7.92294e-09
5.14391e-10
-8.24252e-09
4.39156e-10
-8.50026e-09
3.55807e-10
-8.69299e-09
2.6766e-10
-8.81988e-09
1.77956e-10
-8.8822e-09
8.97003e-11
-8.88314e-09
5.61094e-12
-8.82743e-09
-7.22899e-11
-8.721e-09
-1.4207e-10
-8.57066e-09
-2.02603e-10
-8.3837e-09
-2.53153e-10
-8.16758e-09
-2.93446e-10
-7.92967e-09
-3.23618e-10
-7.67695e-09
-3.44145e-10
-7.41588e-09
-3.55773e-10
-7.15222e-09
-3.59437e-10
-6.89098e-09
-3.56196e-10
-6.63634e-09
-3.47162e-10
-6.39171e-09
-3.33451e-10
-6.1597e-09
-3.16129e-10
-5.94221e-09
-2.96189e-10
-5.74051e-09
-2.74517e-10
-5.55531e-09
-2.5189e-10
-5.38682e-09
-2.28963e-10
-5.2349e-09
-2.06273e-10
-5.09905e-09
-1.84248e-10
-4.97858e-09
-1.63211e-10
-4.87261e-09
-1.43398e-10
-4.78012e-09
-1.24968e-10
-4.70007e-09
-1.08014e-10
-4.63134e-09
-9.25762e-11
-4.57283e-09
-7.86548e-11
-4.52347e-09
-6.62166e-11
-4.48221e-09
-5.52048e-11
-4.44807e-09
-4.55457e-11
-4.42013e-09
-3.7154e-11
-4.39752e-09
-2.99372e-11
-4.37946e-09
-2.37994e-11
-4.36522e-09
-1.86432e-11
-4.35416e-09
-1.43714e-11
-4.3457e-09
-1.08873e-11
-4.33933e-09
-8.09619e-12
-4.33461e-09
-5.90382e-12
-4.33116e-09
-4.21574e-12
-4.32868e-09
-2.93531e-12
-4.32694e-09
-1.96347e-12
-4.32578e-09
-1.21004e-12
-4.32511e-09
-5.67278e-13
-4.32491e-09
6.21204e-14
-4.32522e-09
7.5395e-13
-4.32609e-09
1.5411e-12
-4.32758e-09
2.43908e-12
-4.32969e-09
3.35198e-12
-4.33226e-09
4.08036e-12
-4.33486e-09
4.28494e-12
-4.33673e-09
3.46094e-12
-4.33658e-09
9.38925e-13
-4.33247e-09
-4.16301e-12
-4.32179e-09
-1.29127e-11
-4.30088e-09
-2.65436e-11
-4.26503e-09
-4.66608e-11
-4.20795e-09
-7.54628e-11
-4.12076e-09
-1.1685e-10
-3.99039e-09
-1.78418e-10
-3.79332e-09
-2.72668e-10
-4.62882e-10
-3.49616e-09
9.89836e-11
-2.8015e-10
2.87248e-10
-6.03118e-10
4.8001e-10
-7.28309e-10
6.10429e-10
-6.8974e-10
6.24087e-10
-5.17006e-10
4.76547e-10
-2.3639e-10
1.31679e-10
1.29341e-10
-4.39658e-10
5.6088e-10
-1.26083e-09
1.04239e-09
-2.35046e-09
1.56124e-09
-3.7234e-09
2.10774e-09
-5.39157e-09
2.67483e-09
-7.36461e-09
3.25768e-09
-9.65048e-09
3.85318e-09
-1.22557e-08
4.4595e-09
-1.51856e-08
5.07553e-09
-1.84441e-08
5.70039e-09
-2.20336e-08
6.33283e-09
-2.59541e-08
6.9708e-09
-3.0203e-08
7.61101e-09
-3.47741e-08
8.2486e-09
-3.96566e-08
8.87694e-09
-4.48346e-08
9.4876e-09
-5.02861e-08
1.00703e-08
-5.59824e-08
1.06134e-08
-6.18878e-08
1.11035e-08
-6.79594e-08
1.15268e-08
-7.41469e-08
1.18687e-08
-8.03933e-08
1.21145e-08
-8.66356e-08
1.22504e-08
-9.28053e-08
1.22633e-08
-9.88298e-08
1.21418e-08
-1.04634e-07
1.18766e-08
-1.10141e-07
1.14607e-08
-1.15275e-07
1.08901e-08
-1.19962e-07
1.01636e-08
-1.24131e-07
9.28336e-09
-1.27717e-07
8.25479e-09
-1.3066e-07
7.0864e-09
-1.32909e-07
5.78972e-09
-1.3442e-07
4.37899e-09
-1.3516e-07
2.87086e-09
-1.35104e-07
1.28395e-09
-1.34238e-07
-3.61383e-10
-1.32557e-07
-2.04391e-09
-1.30068e-07
-3.7415e-09
-1.26785e-07
-5.43248e-09
-1.22732e-07
-7.09591e-09
-1.17939e-07
-8.71195e-09
-1.12444e-07
-1.02623e-08
-1.06291e-07
-1.17307e-08
-9.95275e-08
-1.3103e-08
-9.22064e-08
-1.43677e-08
-8.43823e-08
-1.5516e-08
-7.61114e-08
-1.65417e-08
-6.74504e-08
-1.74413e-08
-5.84554e-08
-1.82137e-08
-4.91815e-08
-1.88598e-08
-3.9682e-08
-1.93821e-08
-3.00081e-08
-1.97841e-08
-2.02091e-08
-2.00696e-08
-1.03324e-08
-2.02422e-08
-4.24029e-10
-2.03042e-08
9.47e-09
-2.02555e-08
1.93028e-08
-2.00946e-08
2.90261e-08
-1.98187e-08
3.85889e-08
-1.94227e-08
4.79363e-08
-1.88987e-08
5.70086e-08
-1.8237e-08
6.574e-08
-1.74264e-08
7.40585e-08
-1.64551e-08
8.18859e-08
-1.53122e-08
8.91378e-08
-1.39882e-08
9.57247e-08
-1.2477e-08
1.01554e-07
-1.07768e-08
1.0653e-07
-8.89185e-09
1.10562e-07
-6.83345e-09
1.13561e-07
-4.62123e-09
1.1545e-07
-2.284e-09
1.16164e-07
1.39054e-10
1.15657e-07
2.59908e-09
1.13912e-07
5.0384e-09
1.1094e-07
7.39266e-09
1.06786e-07
9.59321e-09
1.01533e-07
1.15705e-08
9.52995e-08
1.32584e-08
8.82427e-08
1.45997e-08
8.05484e-08
1.55509e-08
7.24251e-08
1.60866e-08
6.40933e-08
1.62031e-08
5.57721e-08
1.59194e-08
4.76673e-08
1.52755e-08
3.99591e-08
1.43293e-08
3.27938e-08
1.31506e-08
2.62779e-08
1.18146e-08
2.04767e-08
1.03962e-08
1.54158e-08
8.96447e-09
1.10849e-08
7.57986e-09
7.44375e-09
6.29245e-09
4.42805e-09
5.14125e-09
1.95657e-09
4.15372e-09
-6.1839e-11
3.34501e-09
-1.72093e-09
2.71737e-09
-3.10999e-09
2.26017e-09
-4.30769e-09
1.95175e-09
-5.37802e-09
1.76267e-09
-6.36815e-09
1.65965e-09
-7.30843e-09
1.60979e-09
-8.21425e-09
1.58399e-09
-9.08896e-09
1.55918e-09
-9.92732e-09
1.51911e-09
-1.07188e-08
1.45408e-09
-1.14504e-08
1.35998e-09
-1.2109e-08
1.23699e-09
-1.2683e-08
1.08835e-09
-1.31631e-08
9.19218e-10
-1.35431e-08
7.35808e-10
-1.38201e-08
5.44703e-10
-1.39945e-08
3.52364e-10
-1.40696e-08
1.64766e-10
-1.40511e-08
-1.28322e-11
-1.39472e-08
-1.76177e-10
-1.37675e-08
-3.21864e-10
-1.35224e-08
-4.47621e-10
-1.32234e-08
-5.52143e-10
-1.28818e-08
-6.35043e-10
-1.25087e-08
-6.96739e-10
-1.21145e-08
-7.38325e-10
-1.17089e-08
-7.61413e-10
-1.13004e-08
-7.67991e-10
-1.08963e-08
-7.60276e-10
-1.05028e-08
-7.40583e-10
-1.01251e-08
-7.11218e-10
-9.76682e-09
-6.74389e-10
-9.43087e-09
-6.32141e-10
-9.11908e-09
-5.86306e-10
-8.83249e-09
-5.38486e-10
-8.57141e-09
-4.90035e-10
-8.33562e-09
-4.42068e-10
-8.1244e-09
-3.95471e-10
-7.93668e-09
-3.50923e-10
-7.77117e-09
-3.08917e-10
-7.62634e-09
-2.69789e-10
-7.50062e-09
-2.3374e-10
-7.39233e-09
-2.00862e-10
-7.29983e-09
-1.71159e-10
-7.22147e-09
-1.44569e-10
-7.1557e-09
-1.2098e-10
-7.101e-09
-1.00242e-10
-7.05598e-09
-8.218e-11
-7.01931e-09
-6.6605e-11
-6.98979e-09
-5.3318e-11
-6.96632e-09
-4.2117e-11
-6.94789e-09
-3.27991e-11
-6.93361e-09
-2.51633e-11
-6.9227e-09
-1.9011e-11
-6.91446e-09
-1.41446e-11
-6.90831e-09
-1.03665e-11
-6.90377e-09
-7.47683e-12
-6.90046e-09
-5.27299e-12
-6.89811e-09
-3.55329e-12
-6.89657e-09
-2.11234e-12
-6.89574e-09
-7.61374e-13
-6.89564e-09
6.45879e-13
-6.89628e-09
2.1895e-12
-6.89769e-09
3.84076e-12
-6.89973e-09
5.39078e-12
-6.90204e-09
6.39841e-12
-6.90389e-09
6.1311e-12
-6.90395e-09
3.5168e-12
-6.90013e-09
-2.87383e-12
-6.88944e-09
-1.48576e-11
-6.86774e-09
-3.4609e-11
-6.82958e-09
-6.47087e-11
-6.76794e-09
-1.08298e-10
-6.67387e-09
-1.69535e-10
-6.53578e-09
-2.54934e-10
-6.33845e-09
-3.7575e-10
-6.05907e-09
-5.52049e-10
-8.22076e-10
-5.69988e-09
2.96146e-11
-3.09764e-10
3.11823e-11
-6.04686e-10
-6.6714e-11
-6.30413e-10
-3.2137e-10
-4.35084e-10
-7.79456e-10
-5.892e-11
-1.47936e-09
4.63516e-10
-2.45306e-09
1.10303e-09
-3.72734e-09
1.83517e-09
-5.32484e-09
2.63989e-09
-7.26479e-09
3.50118e-09
-9.56358e-09
4.40653e-09
-1.22351e-08
5.34639e-09
-1.52911e-08
6.31364e-09
-1.87408e-08
7.30293e-09
-2.25914e-08
8.31004e-09
-2.68471e-08
9.33119e-09
-3.1509e-08
1.03623e-08
-3.65744e-08
1.13983e-08
-4.20361e-08
1.24325e-08
-4.78813e-08
1.34562e-08
-5.40908e-08
1.44581e-08
-6.06385e-08
1.54246e-08
-6.74903e-08
1.63394e-08
-7.46039e-08
1.7184e-08
-8.19287e-08
1.79381e-08
-8.94056e-08
1.85804e-08
-9.69679e-08
1.90892e-08
-1.04542e-07
1.94428e-08
-1.12049e-07
1.96212e-08
-1.19404e-07
1.96058e-08
-1.26522e-07
1.93812e-08
-1.33315e-07
1.89351e-08
-1.39698e-07
1.82591e-08
-1.45586e-07
1.73491e-08
-1.50902e-07
1.62055e-08
-1.55571e-07
1.48333e-08
-1.5953e-07
1.32419e-08
-1.6272e-07
1.14452e-08
-1.65095e-07
9.46092e-09
-1.66616e-07
7.31042e-09
-1.67255e-07
5.01806e-09
-1.66995e-07
2.61068e-09
-1.65828e-07
1.17203e-10
-1.63757e-07
-2.43203e-09
-1.60795e-07
-5.00632e-09
-1.56961e-07
-7.57543e-09
-1.52283e-07
-1.01099e-08
-1.46798e-07
-1.25816e-08
-1.40545e-07
-1.49642e-08
-1.33574e-07
-1.7234e-08
-1.25934e-07
-1.93702e-08
-1.17682e-07
-2.1355e-08
-1.08876e-07
-2.31745e-08
-9.9573e-08
-2.48185e-08
-8.98341e-08
-2.62806e-08
-7.97175e-08
-2.7558e-08
-6.92802e-08
-2.86509e-08
-5.85773e-08
-2.95627e-08
-4.76609e-08
-3.02986e-08
-3.658e-08
-3.0865e-08
-2.53809e-08
-3.12687e-08
-1.41072e-08
-3.15158e-08
-2.80092e-09
-3.16105e-08
8.49781e-09
-3.15542e-08
1.97481e-08
-3.13449e-08
3.09068e-08
-3.09773e-08
4.19276e-08
-3.04435e-08
5.27602e-08
-2.97313e-08
6.33483e-08
-2.88251e-08
7.36289e-08
-2.77069e-08
8.35309e-08
-2.63572e-08
9.29755e-08
-2.47567e-08
1.01875e-07
-2.28879e-08
1.10135e-07
-2.07367e-08
1.17653e-07
-1.82945e-08
1.24321e-07
-1.55603e-08
1.3003e-07
-1.25423e-08
1.34669e-07
-9.25995e-09
1.3813e-07
-5.74556e-09
1.40315e-07
-2.04563e-09
1.41137e-07
1.77719e-09
1.4053e-07
5.64567e-09
1.38455e-07
9.46725e-09
1.34909e-07
1.31388e-08
1.2993e-07
1.65499e-08
1.236e-07
1.95883e-08
1.16052e-07
2.21477e-08
1.07467e-07
2.41362e-08
9.80679e-08
2.54853e-08
8.81133e-08
2.61577e-08
7.78796e-08
2.61531e-08
6.76458e-08
2.55093e-08
5.7675e-08
2.43001e-08
4.81981e-08
2.26275e-08
3.94007e-08
2.0612e-08
3.14154e-08
1.83814e-08
2.43196e-08
1.60603e-08
1.81375e-08
1.3762e-08
1.28464e-08
1.15835e-08
8.38508e-09
9.60259e-09
4.66342e-09
7.87538e-09
1.57317e-09