/*--------------------------------*- C++ -*----------------------------------*\
  =========                 |
  \\      /  F ield         | OpenFOAM: The Open Source CFD Toolbox
   \\    /   O peration     | Website:  https://openfoam.org
    \\  /    A nd           | Version:  8
     \\/     M anipulation  |
\*---------------------------------------------------------------------------*/
FoamFile
{
    version     2.0;
    format      ascii;
    class       volVectorField;
    location    "0.74";
    object      U;
}
// * * * * * * * * * * * * * * * * * * * * * * * * * * * * * * * * * * * * * //

dimensions      [0 1 -1 0 0 0 0];

internalField   nonuniform List<vector> 
12225
(
(-8.76356e-06 1.18855e-06 0)
(-3.75927e-06 -6.8342e-07 0)
(3.49337e-05 -1.72259e-06 0)
(9.74733e-05 -2.64587e-06 0)
(0.000179791 -3.45238e-06 0)
(0.000278602 -4.23791e-06 0)
(0.00039217 -5.03411e-06 0)
(0.00051935 -5.87426e-06 0)
(0.000659488 -6.79365e-06 0)
(0.000812414 -7.85151e-06 0)
(0.000978636 -9.15253e-06 0)
(0.00115962 -1.08828e-05 0)
(0.00135814 -1.33849e-05 0)
(0.00157796 -1.72181e-05 0)
(0.00182115 -2.22668e-05 0)
(0.00208214 -2.22976e-05 0)
(0.00228087 -3.32378e-05 0)
(0.000368874 0.00133321 0)
(-1.78783e-05 2.97742e-06 0)
(7.68923e-06 -1.05744e-05 0)
(0.000124725 -2.39455e-05 0)
(0.00030997 -3.56331e-05 0)
(0.0005521 -4.62586e-05 0)
(0.000841836 -5.64414e-05 0)
(0.00117369 -6.65709e-05 0)
(0.00154368 -7.69067e-05 0)
(0.00194888 -8.76916e-05 0)
(0.00238716 -9.92581e-05 0)
(0.00285726 -0.000112101 0)
(0.00335842 -0.000126873 0)
(0.00388901 -0.000144095 0)
(0.00444049 -0.000162524 0)
(0.0049794 -0.000170854 0)
(0.00538522 -0.000105826 0)
(0.00530762 0.000308487 0)
(0.00158756 0.00331671 0)
(-2.0631e-05 3.34231e-06 0)
(3.65332e-05 -3.36734e-05 0)
(0.000235661 -7.22107e-05 0)
(0.000544547 -0.000106335 0)
(0.000945516 -0.000137581 0)
(0.00142371 -0.000167424 0)
(0.00196953 -0.000196854 0)
(0.00257542 -0.00022645 0)
(0.00323502 -0.000256644 0)
(0.00394235 -0.000287886 0)
(0.00469116 -0.000320603 0)
(0.00547299 -0.000354644 0)
(0.00627209 -0.000387207 0)
(0.00705074 -0.000405785 0)
(0.00771244 -0.000362777 0)
(0.00799209 -8.22549e-05 0)
(0.00732194 0.00106938 0)
(0.00290845 0.00570951 0)
(-1.85914e-05 -4.34803e-07 0)
(8.03691e-05 -7.40519e-05 0)
(0.000365186 -0.00015194 0)
(0.000797594 -0.000221698 0)
(0.00135451 -0.000285856 0)
(0.00201595 -0.000346958 0)
(0.00276788 -0.000406735 0)
(0.00359844 -0.000466039 0)
(0.00449648 -0.00052524 0)
(0.00545011 -0.000584338 0)
(0.00644478 -0.000642487 0)
(0.00745911 -0.000696119 0)
(0.0084554 -0.000733332 0)
(0.00935687 -0.000717861 0)
(0.009999 -0.000541369 0)
(0.0100127 0.000117296 0)
(0.00877135 0.00219921 0)
(0.00430544 0.00826195 0)
(-1.31005e-05 -1.1493e-05 0)
(0.000136393 -0.00013556 0)
(0.000509734 -0.000267055 0)
(0.00106408 -0.000386024 0)
(0.00177174 -0.000495812 0)
(0.00260808 -0.000600057 0)
(0.00355438 -0.000701177 0)
(0.00459366 -0.000800027 0)
(0.00570872 -0.000896328 0)
(0.00687973 -0.000988526 0)
(0.00808089 -0.00107244 0)
(0.00927396 -0.00113723 0)
(0.010395 -0.00115473 0)
(0.0113275 -0.00105293 0)
(0.0118537 -0.000648207 0)
(0.0115666 0.000518527 0)
(0.00991424 0.0035564 0)
(0.00573979 0.0107164 0)
(-5.27708e-06 -3.27851e-05 0)
(0.000201386 -0.000222388 0)
(0.000664619 -0.000421888 0)
(0.00133736 -0.000603895 0)
(0.00218781 -0.000772267 0)
(0.00318719 -0.000931601 0)
(0.00431183 -0.00108472 0)
(0.00553903 -0.00123195 0)
(0.00684436 -0.00137141 0)
(0.00819838 -0.00149836 0)
(0.00956203 -0.00160259 0)
(0.0108783 -0.00166146 0)
(0.0120573 -0.00162379 0)
(0.0129502 -0.00137386 0)
(0.0133123 -0.000652506 0)
(0.0127607 0.00110037 0)
(0.0108906 0.00502357 0)
(0.00717705 0.0129663 0)
(3.92059e-06 -6.70173e-05 0)
(0.000271737 -0.000338799 0)
(0.000824055 -0.000620867 0)
(0.00160911 -0.000879778 0)
(0.00259123 -0.00111966 0)
(0.00373788 -0.00134577 0)
(0.00502042 -0.00156083 0)
(0.00640989 -0.00176382 0)
(0.00787385 -0.00194997 0)
(0.0093723 -0.00210937 0)
(0.0108522 -0.00222268 0)
(0.0122383 -0.00225126 0)
(0.0134194 -0.00211611 0)
(0.0142279 -0.00165608 0)
(0.0144207 -0.000548912 0)
(0.0136819 0.00181756 0)
(0.0117731 0.00651049 0)
(0.00859322 0.0149748 0)
(1.36611e-05 -0.000116567 0)
(0.000343504 -0.000488726 0)
(0.000981205 -0.000867924 0)
(0.00186938 -0.00121728 0)
(0.00296843 -0.0015411 0)
(0.00424247 -0.00184493 0)
(0.00565792 -0.00213064 0)
(0.00717947 -0.00239484 0)
(0.00876636 -0.00262828 0)
(0.010368 -0.0028137 0)
(0.0119182 -0.00291978 0)
(0.0133268 -0.00288871 0)
(0.0144689 -0.00261203 0)
(0.0151739 -0.00188786 0)
(0.0152248 -0.000351825 0)
(0.0143938 0.00261247 0)
(0.0125924 0.00794103 0)
(0.00996722 0.0167174 0)
(2.32241e-05 -0.000183298 0)
(0.000412504 -0.000675349 0)
(0.00112832 -0.00116596 0)
(0.0021067 -0.00161852 0)
(0.00330394 -0.00203773 0)
(0.00468116 -0.00242893 0)
(0.00620017 -0.00279229 0)
(0.00781956 -0.00312076 0)
(0.0094907 -0.00339901 0)
(0.0111535 -0.00360031 0)
(0.0127309 -0.00367918 0)
(0.0141232 -0.00355727 0)
(0.0152014 -0.00309856 0)
(0.0158062 -0.0020704 0)
(0.0157635 -9.05829e-05 0)
(0.0149358 0.00342259 0)
(0.0133503 0.00924878 0)
(0.0112751 0.0181714 0)
(3.19738e-05 -0.00026833 0)
(0.000474417 -0.000900588 0)
(0.00125692 -0.00151626 0)
(0.00230836 -0.00208353 0)
(0.00358069 -0.00260801 0)
(0.0050325 -0.00309444 0)
(0.00662163 -0.0035403 0)
(0.00830132 -0.00393359 0)
(0.0100163 -0.0042513 0)
(0.0116991 -0.00445561 0)
(0.0132657 -0.00448578 0)
(0.014613 -0.00424367 0)
(0.0156174 -0.00357082 0)
(0.0161426 -0.00221688 0)
(0.0160642 0.000195014 0)
(0.0153248 0.0041852 0)
(0.0140296 0.010376 0)
(0.0124871 0.0193142 0)
(3.93501e-05 -0.000371917 0)
(0.00052492 -0.00116449 0)
(0.00135811 -0.00191777 0)
(0.00246073 -0.00260947 0)
(0.0037805 -0.00324705 0)
(0.00527404 -0.00383429 0)
(0.00689618 -0.00436508 0)
(0.00859618 -0.00482127 0)
(0.0103142 -0.00517091 0)
(0.0119782 -0.00536417 0)
(0.0135022 -0.00532527 0)
(0.0147859 -0.00493908 0)
(0.0157193 -0.00403214 0)
(0.0161955 -0.00235021 0)
(0.0161397 0.000459209 0)
(0.0155575 0.00484064 0)
(0.0145985 0.0112724 0)
(0.0135658 0.0201224 0)
(4.45365e-05 -0.000483287 0)
(0.00055708 -0.00143951 0)
(0.00141764 -0.00232885 0)
(0.0025427 -0.00314141 0)
(0.00387645 -0.00388748 0)
(0.0053745 -0.00456991 0)
(0.00699017 -0.00517861 0)
(0.00867079 -0.00568893 0)
(0.0103546 -0.00606005 0)
(0.0119691 -0.00623115 0)
(0.0134306 -0.00611405 0)
(0.014647 -0.00558206 0)
(0.0155254 -0.0044556 0)
(0.0159882 -0.00248832 0)
(0.0160005 0.000637912 0)
(0.0156085 0.00529453 0)
(0.0149791 0.0118462 0)
(0.0143902 0.0205389 0)
(4.85039e-05 -0.0006059 0)
(0.000574534 -0.00173662 0)
(0.00144246 -0.00276705 0)
(0.00256556 -0.00370295 0)
(0.00388505 -0.0045584 0)
(0.00535634 -0.00533548 0)
(0.00693265 -0.00601972 0)
(0.00856118 -0.00657965 0)
(0.0101808 -0.00696553 0)
(0.0117212 -0.00710628 0)
(0.0131047 -0.00690352 0)
(0.014251 -0.00622314 0)
(0.0150868 -0.00488593 0)
(0.0155623 -0.00266128 0)
(0.0156752 0.000728764 0)
(0.015498 0.00558481 0)
(0.0151996 0.0121757 0)
(0.0150258 0.0206557 0)
(5.10945e-05 -0.000757427 0)
(0.000572412 -0.0021004 0)
(0.00141885 -0.00329628 0)
(0.00250373 -0.00437416 0)
(0.00376635 -0.00535387 0)
(0.00516338 -0.0062367 0)
(0.00665 -0.00700314 0)
(0.00817589 -0.00761377 0)
(0.0096838 -0.00800923 0)
(0.0111101 -0.00810838 0)
(0.0123878 -0.0078046 0)
(0.0134531 -0.00696099 0)
(0.0142556 -0.00540637 0)
(0.0147736 -0.00293569 0)
(0.0150316 0.000679837 0)
(0.0151179 0.0056672 0)
(0.0151904 0.0122078 0)
(0.0154567 0.0203825 0)
(5.06624e-05 -0.000936231 0)
(0.000537491 -0.00252704 0)
(0.00131636 -0.00390924 0)
(0.00230603 -0.0051434 0)
(0.00344733 -0.00625791 0)
(0.00470068 -0.00725365 0)
(0.00602642 -0.00810579 0)
(0.00738067 -0.00876672 0)
(0.00871467 -0.00916772 0)
(0.00997641 -0.00921931 0)
(0.0111147 -0.00881047 0)
(0.0120861 -0.00780783 0)
(0.0128644 -0.0060566 0)
(0.013452 -0.00338577 0)
(0.0138922 0.000379237 0)
(0.0142763 0.00539455 0)
(0.0147422 0.0117674 0)
(0.0154568 0.0195234 0)
(4.50692e-05 -0.0011314 0)
(0.000453142 -0.00299018 0)
(0.00109691 -0.00456761 0)
(0.00190857 -0.00596144 0)
(0.00283716 -0.0072118 0)
(0.00385091 -0.00832029 0)
(0.00491976 -0.00925748 0)
(0.00601123 -0.00996854 0)
(0.00709049 -0.0103774 0)
(0.00812244 -0.0103897 0)
(0.00907584 -0.00989535 0)
(0.00992936 -0.00877126 0)
(0.0106789 -0.00688612 0)
(0.0113452 -0.00410784 0)
(0.0119796 -0.000315442 0)
(0.012666 0.00458482 0)
(0.0135165 0.0106417 0)
(0.0146586 0.017842 0)
(3.19889e-05 -0.00131435 0)
(0.000301597 -0.00342197 0)
(0.000720343 -0.00517604 0)
(0.00124414 -0.00671108 0)
(0.00184014 -0.00808108 0)
(0.00249016 -0.00929015 0)
(0.00317878 -0.0103064 0)
(0.00389027 -0.0110706 0)
(0.00460886 -0.0115033 0)
(0.00532064 -0.0115101 0)
(0.00601674 -0.0109873 0)
(0.00669749 -0.00982761 0)
(0.00737688 -0.00792672 0)
(0.00808639 -0.00519085 0)
(0.0088769 -0.00154602 0)
(0.00981725 0.00305216 0)
(0.0109912 0.00860991 0)
(0.0124913 0.0150895 0)
(9.37709e-06 -0.00142746 0)
(7.0486e-05 -0.00368714 0)
(0.000160396 -0.00554651 0)
(0.000269537 -0.00716523 0)
(0.000394217 -0.00860911 0)
(0.00053581 -0.00988646 0)
(0.000697796 -0.0109665 0)
(0.000885081 -0.0117906 0)
(0.00110436 -0.0122811 0)
(0.00136512 -0.0123491 0)
(0.0016812 -0.0119017 0)
(0.00207268 -0.0108495 0)
(0.0025675 -0.00911336 0)
(0.0032025 -0.00663115 0)
(0.00402303 -0.003364 0)
(0.00508099 0.000698725 0)
(0.00643278 0.00553588 0)
(0.00814058 0.0110968 0)
(-2.40684e-05 -0.00137414 0)
(-0.000230193 -0.00356017 0)
(-0.00055528 -0.0053649 0)
(-0.000967187 -0.00694326 0)
(-0.00143416 -0.00836255 0)
(-0.00193284 -0.0096353 0)
(-0.00244016 -0.0107365 0)
(-0.00293038 -0.0116149 0)
(-0.00337458 -0.0122016 0)
(-0.00374072 -0.0124188 0)
(-0.00399377 -0.0121878 0)
(-0.00409605 -0.0114357 0)
(-0.00400777 -0.0101026 0)
(-0.00368798 -0.00814653 0)
(-0.00309608 -0.00554763 0)
(-0.00219328 -0.00231018 0)
(-0.000942549 0.0015372 0)
(0.000692334 0.00594138 0)
(-4.71444e-05 -0.00112931 0)
(-0.00045521 -0.00297523 0)
(-0.00109954 -0.00453291 0)
(-0.00191936 -0.00591584 0)
(-0.00286064 -0.00717724 0)
(-0.00388798 -0.00833032 0)
(-0.00496745 -0.00935803 0)
(-0.00606132 -0.0102207 0)
(-0.00712727 -0.0108632 0)
(-0.00811899 -0.0112219 0)
(-0.00898726 -0.0112317 0)
(-0.00968162 -0.0108324 0)
(-0.0101522 -0.00997473 0)
(-0.0103519 -0.00862457 0)
(-0.0102383 -0.00676626 0)
(-0.00977546 -0.00440396 0)
(-0.00893296 -0.00156164 0)
(-0.00768226 0.00171819 0)
(-5.59942e-05 -0.000854949 0)
(-0.000556699 -0.00232387 0)
(-0.00135587 -0.0036025 0)
(-0.00238221 -0.00475462 0)
(-0.00357491 -0.00581691 0)
(-0.00489558 -0.00680191 0)
(-0.00630737 -0.00769973 0)
(-0.00776909 -0.00848192 0)
(-0.00923422 -0.00910647 0)
(-0.0106514 -0.00952331 0)
(-0.0119657 -0.00967993 0)
(-0.013121 -0.00952678 0)
(-0.0140617 -0.00902222 0)
(-0.014736 -0.00813639 0)
(-0.0150983 -0.00685386 0)
(-0.0151108 -0.0051749 0)
(-0.0147431 -0.00311546 0)
(-0.01397 -0.000706515 0)
(-5.4355e-05 -0.000591157 0)
(-0.000568302 -0.00169236 0)
(-0.00140586 -0.0026895 0)
(-0.00249683 -0.00359984 0)
(-0.0037825 -0.00444536 0)
(-0.00522594 -0.00523774 0)
(-0.00679141 -0.0059731 0)
(-0.00843909 -0.00663298 0)
(-0.0101238 -0.00718744 0)
(-0.0117951 -0.00759913 0)
(-0.0133982 -0.00782751 0)
(-0.0148761 -0.00783322 0)
(-0.0161718 -0.00758193 0)
(-0.0172316 -0.00704765 0)
(-0.018007 -0.00621495 0)
(-0.0184577 -0.00508018 0)
(-0.0185512 -0.00365172 0)
(-0.0182615 -0.00195013 0)
(-4.5157e-05 -0.000372008 0)
(-0.000514766 -0.00115618 0)
(-0.00130625 -0.00189896 0)
(-0.0023571 -0.00258315 0)
(-0.00361495 -0.00322054 0)
(-0.00504584 -0.00382197 0)
(-0.0066171 -0.00438791 0)
(-0.008293 -0.00490765 0)
(-0.0100331 -0.00536124 0)
(-0.0117917 -0.00572223 0)
(-0.0135182 -0.00596089 0)
(-0.0151591 -0.0060474 0)
(-0.0166598 -0.00595479 0)
(-0.0179674 -0.00566148 0)
(-0.0190334 -0.00515319 0)
(-0.0198158 -0.00442394 0)
(-0.0202802 -0.00347648 0)
(-0.0203992 -0.00232294 0)
(-3.14546e-05 -0.000209008 0)
(-0.000422288 -0.000740948 0)
(-0.00111581 -0.00126901 0)
(-0.00205939 -0.0017569 0)
(-0.00320776 -0.00221084 0)
(-0.00453014 -0.00264074 0)
(-0.00599769 -0.00304959 0)
(-0.00758008 -0.00343207 0)
(-0.00924326 -0.0037757 0)
(-0.0109484 -0.00406281 0)
(-0.0126518 -0.00427274 0)
(-0.0143061 -0.00438413 0)
(-0.0158621 -0.00437699 0)
(-0.0172708 -0.00423458 0)
(-0.0184859 -0.00394485 0)
(-0.0194663 -0.00350128 0)
(-0.0201771 -0.0029033 0)
(-0.0205907 -0.00215702 0)
(-1.60328e-05 -9.99482e-05 0)
(-0.00031371 -0.000442555 0)
(-0.000884385 -0.000798069 0)
(-0.00168431 -0.00112532 0)
(-0.00267454 -0.0014283 0)
(-0.00382729 -0.0017156 0)
(-0.00511798 -0.00199112 0)
(-0.00652206 -0.00225281 0)
(-0.00801243 -0.00249342 0)
(-0.00955794 -0.00270183 0)
(-0.0111229 -0.00286458 0)
(-0.0126679 -0.0029673 0)
(-0.0141507 -0.00299618 0)
(-0.0155286 -0.00293919 0)
(-0.01676 -0.00278711 0)
(-0.0178067 -0.00253418 0)
(-0.0186356 -0.00217839 0)
(-0.0192199 -0.00172204 0)
(-1.29829e-06 -3.56053e-05 0)
(-0.000206917 -0.000242528 0)
(-0.00064925 -0.000465229 0)
(-0.00129116 -0.000668066 0)
(-0.00209899 -0.000854407 0)
(-0.00304821 -0.00103106 0)
(-0.00411873 -0.00120164 0)
(-0.00529171 -0.00136578 0)
(-0.00654684 -0.0015196 0)
(-0.00786056 -0.00165663 0)
(-0.00920541 -0.00176874 0)
(-0.0105502 -0.00184704 0)
(-0.011861 -0.00188276 0)
(-0.0131025 -0.00186802 0)
(-0.0142396 -0.00179647 0)
(-0.0152391 -0.00166377 0)
(-0.0160713 -0.00146775 0)
(-0.0167123 -0.00120869 0)
(1.06361e-05 -4.19656e-06 0)
(-0.000114753 -0.000117986 0)
(-0.000435369 -0.000243306 0)
(-0.000918788 -0.000355535 0)
(-0.00153644 -0.000457634 0)
(-0.00226771 -0.00055432 0)
(-0.00309717 -0.00064827 0)
(-0.00401135 -0.000739716 0)
(-0.00499607 -0.000826823 0)
(-0.00603474 -0.000906212 0)
(-0.0071076 -0.00097349 0)
(-0.00819168 -0.00102375 0)
(-0.00926141 -0.00105205 0)
(-0.0102896 -0.00105382 0)
(-0.0112486 -0.00102523 0)
(-0.0121117 -0.000963498 0)
(-0.0128541 -0.000866959 0)
(-0.0134562 -0.000735096 0)
(1.77926e-05 6.04152e-06 0)
(-4.55746e-05 -4.73574e-05 0)
(-0.000257256 -0.000106295 0)
(-0.000589406 -0.000157895 0)
(-0.00101934 -0.000204303 0)
(-0.00153134 -0.000248189 0)
(-0.00211465 -0.000291093 0)
(-0.00276059 -0.000333309 0)
(-0.00346025 -0.000374116 0)
(-0.0042031 -0.000412042 0)
(-0.00497622 -0.000445111 0)
(-0.00576428 -0.00047107 0)
(-0.00654978 -0.000487605 0)
(-0.00731373 -0.000492529 0)
(-0.00803645 -0.000483958 0)
(-0.00869848 -0.000460434 0)
(-0.00928136 -0.000420992 0)
(-0.0097704 -0.000364997 0)
(1.81493e-05 5.59673e-06 0)
(-4.05312e-06 -1.29106e-05 0)
(-0.000121443 -3.24865e-05 0)
(-0.000313031 -4.91011e-05 0)
(-0.000563644 -6.38214e-05 0)
(-0.000863337 -7.77167e-05 0)
(-0.00120591 -9.13966e-05 0)
(-0.00158676 -0.00010502 0)
(-0.00200127 -0.000118396 0)
(-0.00244388 -0.000131074 0)
(-0.0029076 -0.000142432 0)
(-0.00338386 -0.000151744 0)
(-0.00386267 -0.000158251 0)
(-0.00433297 -0.000161223 0)
(-0.00478308 -0.000160008 0)
(-0.00520124 -0.000154078 0)
(-0.00557595 -0.000143032 0)
(-0.00589802 -0.000126416 0)
(9.7587e-06 1.99438e-06 0)
(8.10899e-06 -6.26248e-07 0)
(-2.8745e-05 -2.24762e-06 0)
(-9.14638e-05 -3.52915e-06 0)
(-0.00017426 -4.6158e-06 0)
(-0.000273583 -5.63822e-06 0)
(-0.000387443 -6.66306e-06 0)
(-0.000514503 -7.71301e-06 0)
(-0.00065347 -8.77938e-06 0)
(-0.000802736 -9.83155e-06 0)
(-0.000960188 -1.0823e-05 0)
(-0.00112315 -1.1698e-05 0)
(-0.0012884 -1.23952e-05 0)
(-0.00145232 -1.28536e-05 0)
(-0.00161096 -1.30165e-05 0)
(-0.00176032 -1.28404e-05 0)
(-0.00189629 -1.22522e-05 0)
(-0.00201557 -1.11461e-05 0)
(1.56023e-05 -3.59843e-05 6.59177e-24)
(0.000116777 -8.73882e-05 -8.83185e-24)
(0.000283848 -0.000119039 0)
(0.000490786 -0.00013323 0)
(0.000704518 -0.000134726 0)
(0.000900869 -0.000127295 6.92601e-24)
(0.00106266 -0.000113977 0)
(0.00117753 -9.72026e-05 0)
(0.00123689 -7.87939e-05 0)
(0.00123505 -6.00143e-05 0)
(0.0011686 -4.16335e-05 2.73561e-24)
(0.00103564 -2.40609e-05 0)
(0.000835206 -7.4221e-06 0)
(0.000566757 8.37408e-06 0)
(0.000229828 2.3568e-05 0)
(-0.000176267 3.84945e-05 1.82479e-23)
(-0.000652601 5.35406e-05 0)
(-0.00120069 6.91059e-05 0)
(-0.00182249 8.55654e-05 0)
(-0.00252025 0.000103239 0)
(-0.00329637 0.000122372 0)
(-0.00415319 0.000143122 0)
(-0.00509266 0.000165547 0)
(-0.0061161 0.000189607 5.10238e-23)
(-0.0072239 0.000215159 -5.53633e-23)
(-0.00841521 0.000241958 5.96064e-23)
(-0.00968769 0.000269663 6.36834e-23)
(-0.0110373 0.000297834 0)
(-0.0124579 0.000325937 0)
(-0.0139415 0.000353354 -7.40858e-23)
(-0.0154776 0.000379385 -7.66269e-23)
(-0.0170537 0.000403266 0)
(-0.0186548 0.000424182 0)
(-0.0202639 0.00044129 -7.99945e-23)
(-0.021862 0.000453747 0)
(-0.0234281 0.000460739 0)
(-0.0249401 0.000461519 7.47562e-23)
(-0.0263746 0.000455443 0)
(-0.0277079 0.000442004 6.52832e-23)
(-0.028916 0.000420869 1.1715e-22)
(-0.0299756 0.000391912 0)
(-0.0308646 0.000355227 0)
(-0.0315623 0.000311135 0)
(-0.0320506 0.000260175 0)
(-0.0323139 0.000203149 0)
(-0.0323395 0.000141216 -1.75489e-23)
(-0.032118 7.52376e-05 -4.76266e-23)
(-0.0316447 6.49342e-06 -7.91458e-23)
(-0.0309182 -6.35173e-05 0)
(-0.0299413 -0.000133352 1.44948e-22)
(-0.0287202 -0.000201636 0)
(-0.0272648 -0.000267085 -2.11525e-22)
(-0.025588 -0.000328546 -2.43942e-22)
(-0.0237056 -0.00038504 0)
(-0.0216355 -0.000435788 0)
(-0.0193971 -0.000480226 0)
(-0.0170113 -0.000518003 -3.56929e-22)
(-0.0144993 -0.000548962 0)
(-0.0118827 -0.000573118 0)
(-0.00918285 -0.00059061 0)
(-0.00642092 -0.000601656 0)
(-0.00361759 -0.000606447 0)
(-0.000793384 -0.000604943 0)
(0.00203158 -0.000596901 0)
(0.00483784 -0.000582551 0)
(0.0076046 -0.000562447 4.05448e-22)
(0.0103105 -0.000536799 0)
(0.0129337 -0.000505578 0)
(0.015451 -0.000468679 -3.40714e-22)
(0.017838 -0.000426005 -3.12333e-22)
(0.0200687 -0.000377535 0)
(0.0221161 -0.000323384 2.47559e-22)
(0.0239525 -0.000263877 -2.12081e-22)
(0.0255501 -0.000199596 0)
(0.0268819 -0.000131426 1.37613e-22)
(0.027923 -6.05634e-05 0)
(0.0286519 1.1487e-05 0)
(0.0290519 8.28435e-05 -2.62284e-23)
(0.0291119 0.000151287 0)
(0.0288288 0.0002152 -4.04616e-23)
(0.0282088 0.000272385 0)
(0.0272662 0.000320948 9.57743e-23)
(0.0260251 0.000359364 1.18133e-22)
(0.0245189 0.000386539 1.36627e-22)
(0.0227892 0.00040192 3.02338e-22)
(0.0208847 0.00040557 -3.23615e-22)
(0.0188587 0.000398163 0)
(0.0167666 0.000380933 0)
(0.0146636 0.000355559 0)
(0.0126013 0.000324016 -3.40976e-22)
(0.0106259 0.000288399 -3.32496e-22)
(0.00877542 0.000250745 3.20833e-22)
(0.00707932 0.000212885 0)
(0.00555735 0.000176318 -2.91712e-22)
(0.00422015 0.000142166 -2.75882e-22)
(0.00306998 0.000111166 -2.60086e-22)
(0.002102 8.37378e-05 0)
(0.00130558 6.00771e-05 0)
(0.00066549 4.02557e-05 0)
(0.000162988 2.42938e-05 -2.05482e-22)
(-0.000223258 1.21808e-05 0)
(-0.00051613 3.83694e-06 0)
(-0.000738834 -9.63276e-07 1.7874e-22)
(-0.000913507 -2.63179e-06 0)
(-0.00105982 -1.76422e-06 0)
(-0.00119382 9.12857e-07 1.64528e-22)
(-0.00132716 4.63152e-06 0)
(-0.00146701 8.68143e-06 0)
(-0.00161639 1.24852e-05 -1.58171e-22)
(-0.00177493 1.56354e-05 -1.56824e-22)
(-0.00193985 1.78953e-05 0)
(-0.00210688 1.91732e-05 1.54285e-22)
(-0.00227105 1.94857e-05 0)
(-0.0024274 1.89208e-05 -1.51247e-22)
(-0.00257132 1.76074e-05 0)
(-0.00269895 1.5694e-05 -1.47266e-22)
(-0.00280723 1.3334e-05 -1.44885e-22)
(-0.00289404 1.06772e-05 0)
(-0.00295819 7.86323e-06 0)
(-0.00299936 5.01513e-06 0)
(-0.00301805 2.24844e-06 0)
(-0.0030154 -2.98604e-07 0)
(-0.00299312 -2.62343e-06 0)
(-0.00295343 -4.6526e-06 0)
(-0.0028988 -6.34567e-06 -1.20153e-22)
(-0.00283184 -7.68948e-06 1.16982e-22)
(-0.00275526 -8.68732e-06 0)
(-0.00267168 -9.35598e-06 0)
(-0.00258357 -9.72281e-06 0)
(-0.0024932 -9.82262e-06 0)
(-0.00240257 -9.69459e-06 2.06272e-22)
(-0.00231339 -9.37962e-06 0)
(-0.00222709 -8.91804e-06 -1.97426e-22)
(-0.00214479 -8.34791e-06 1.93466e-22)
(-0.00206733 -7.70375e-06 0)
(-0.0019953 -7.01578e-06 0)
(-0.00192909 -6.30961e-06 0)
(-0.00186885 -5.60615e-06 -1.80177e-22)
(-0.00181461 -4.92186e-06 -1.77357e-22)
(-0.00176625 -4.26914e-06 0)
(-0.00172355 -3.65678e-06 -1.72128e-22)
(-0.00168622 -3.09051e-06 -1.69669e-22)
(-0.00165393 -2.57351e-06 1.67285e-22)
(-0.00162628 -2.10695e-06 0)
(-0.00160288 -1.69041e-06 0)
(-0.00158334 -1.32231e-06 1.60396e-22)
(-0.00156726 -1.00026e-06 0)
(-0.00155426 -7.21269e-07 0)
(-0.00154396 -4.82028e-07 0)
(-0.00153603 -2.79031e-07 0)
(-0.00153015 -1.08702e-07 -1.4902e-22)
(-0.00152601 3.25382e-08 -1.46686e-22)
(-0.00152335 1.48077e-07 0)
(-0.00152192 2.40125e-07 -1.4193e-22)
(-0.0015215 3.09854e-07 0)
(-0.00152191 3.59395e-07 0)
(-0.00152296 3.90917e-07 -1.34553e-22)
(-0.00152451 4.06322e-07 0)
(-0.00152646 4.07315e-07 -1.29476e-22)
(-0.0015287 3.9874e-07 0)
(-0.00153117 4.00296e-07 0)
(-0.00153383 4.0503e-07 -1.21647e-22)
(-0.00153667 4.13028e-07 0)
(-0.00153972 4.2734e-07 -1.16297e-22)
(-0.00154301 4.58556e-07 0)
(-0.0015466 4.99317e-07 0)
(-0.00155052 5.44277e-07 0)
(-0.00155479 5.89572e-07 1.05269e-22)
(-0.00155936 6.28682e-07 0)
(-0.00156404 6.49957e-07 -9.95225e-23)
(-0.0015685 6.34787e-07 0)
(-0.0015722 5.70022e-07 0)
(-0.00157428 4.93936e-07 0)
(-0.00157355 2.76928e-07 0)
(-0.00156845 -9.28069e-08 0)
(-0.00155685 -6.4493e-07 0)
(-0.00153545 -1.54305e-06 0)
(-0.00149906 -3.66117e-06 1.47464e-22)
(-0.00145027 -3.764e-06 0)
(-0.00128438 -2.5973e-05 0)
(2.71496e-05 -0.000230374 -2.2478e-23)
(0.000207169 -0.00054361 3.03975e-23)
(0.000469065 -0.0007209 0)
(0.000764915 -0.000779732 -2.02597e-23)
(0.00103927 -0.000742446 0)
(0.00124978 -0.000631245 -7.42869e-24)
(0.00136416 -0.00046581 1.41405e-23)
(0.00135735 -0.000262595 1.09202e-23)
(0.00121009 -3.47314e-05 0)
(0.00090807 0.000207866 2.91101e-24)
(0.000440776 0.000458086 -2.9493e-24)
(-0.000199456 0.000711212 0)
(-0.00101829 0.000964537 0)
(-0.00202014 0.00121693 0)
(-0.00320876 0.00146842 0)
(-0.00458764 0.00171979 -1.95516e-23)
(-0.00616023 0.00197221 0)
(-0.00792999 0.00222688 4.59633e-23)
(-0.00990027 0.00248472 0)
(-0.012074 0.00274613 0)
(-0.0144531 0.00301079 -6.98424e-23)
(-0.0170384 0.00327752 0)
(-0.0198284 0.00354423 8.68236e-23)
(-0.022819 0.00380789 -5.37117e-23)
(-0.026003 0.00406462 5.81016e-23)
(-0.0293692 0.00430971 -6.23552e-23)
(-0.0329021 0.00453776 -6.64012e-23)
(-0.0365816 0.00474286 0)
(-0.0403826 0.0049187 0)
(-0.0442749 0.0050588 7.64716e-23)
(-0.0482236 0.0051567 -6.83642e-23)
(-0.0521891 0.00520618 0)
(-0.0561276 0.00520151 0)
(-0.0599916 0.00513765 8.15646e-23)
(-0.0637312 0.00501052 0)
(-0.0672943 0.00481718 0)
(-0.0706282 0.00455605 -7.57242e-23)
(-0.0736806 0.00422703 0)
(-0.0764005 0.00383158 6.51251e-23)
(-0.0787396 0.0033728 -1.18309e-22)
(-0.0806534 0.00285541 0)
(-0.0821022 0.0022856 0)
(-0.0830518 0.00167089 -1.32961e-22)
(-0.0834744 0.00101988 -8.74229e-23)
(-0.0833491 0.000342225 -3.68826e-23)
(-0.0826624 -0.000351598 -3.99263e-25)
(-0.0814094 -0.00105095 4.84524e-23)
(-0.0795916 -0.00174493 2.20541e-22)
(-0.0772186 -0.00242302 -2.051e-22)
(-0.0743064 -0.00307547 -1.48682e-22)
(-0.0708777 -0.00369346 0)
(-0.0669606 -0.00426933 2.18685e-22)
(-0.0625877 -0.00479678 -2.24326e-22)
(-0.0577958 -0.00527094 0)
(-0.0526245 -0.0056884 0)
(-0.0471151 -0.00604721 0)
(-0.0413103 -0.00634675 3.79109e-22)
(-0.0352529 -0.00658753 0)
(-0.0289855 -0.00677098 -8.21513e-22)
(-0.0225498 -0.00689912 0)
(-0.0159865 -0.00697425 -8.9001e-22)
(-0.00933508 -0.00699854 0)
(-0.00263467 -0.00697355 9.23985e-22)
(0.00407538 -0.00690012 0)
(0.0107582 -0.00677892 -8.89659e-22)
(0.017373 -0.00661042 4.10521e-22)
(0.0238781 -0.00639428 0)
(0.0302302 -0.00612922 7.61455e-22)
(0.0363827 -0.00581334 3.67503e-22)
(0.0422853 -0.00544455 3.35357e-22)
(0.0478838 -0.005021 0)
(0.0531202 -0.00454156 2.37017e-22)
(0.0579329 -0.00400631 2.25191e-22)
(0.062258 -0.00341701 0)
(0.0660305 -0.00277759 -1.45406e-22)
(0.0691864 -0.00209447 1.9107e-22)
(0.0716647 -0.00137685 0)
(0.0734107 -0.000636803 2.7639e-23)
(0.0743793 0.000110592 0)
(0.0745377 0.000848585 1.37219e-22)
(0.0738703 0.00155822 0)
(0.0723807 0.00222009 -3.06188e-22)
(0.0700943 0.00281518 -1.24921e-22)
(0.0670597 0.00332579 1.41099e-22)
(0.0633493 0.00373693 3.07625e-22)
(0.0590581 0.0040376 -3.25566e-22)
(0.0543005 0.00422178 0)
(0.049206 0.00428907 0)
(0.0439132 0.0042449 0)
(0.0385622 0.00410004 1.08045e-21)
(0.0332872 0.00386979 3.65321e-22)
(0.0282097 0.00357249 -3.54711e-22)
(0.0234324 0.00322799 0)
(0.0190351 0.00285597 -2.91326e-22)
(0.0150731 0.00247459 3.10374e-22)
(0.0115771 0.0020995 2.94083e-22)
(0.00855504 0.00174347 0)
(0.00599497 0.00141638 0)
(0.00386833 0.00112561 0)
(0.00213336 0.000876295 2.35938e-22)
(0.000738497 0.0006715 0)
(-0.000373987 0.000512055 -4.18487e-22)
(-0.00126418 0.000396316 -6.09602e-22)
(-0.00199033 0.000320127 3.91086e-22)
(-0.00260507 0.000277166 0)
(-0.00315222 0.000259638 1.84181e-22)
(-0.00366493 0.000259214 0)
(-0.00416511 0.000268015 3.64285e-22)
(-0.00466416 0.000279374 -1.78347e-22)
(-0.00516478 0.000288267 -1.7713e-22)
(-0.00566311 0.000291408 0)
(-0.00615106 0.000287075 -5.31459e-22)
(-0.00661839 0.000274806 3.50325e-22)
(-0.00705432 0.00025505 1.74892e-22)
(-0.00744877 0.000228848 0)
(-0.00779318 0.000197578 1.70435e-22)
(-0.00808095 0.000162767 5.0178e-22)
(-0.00830773 0.000125958 0)
(-0.00847142 8.86113e-05 3.2255e-22)
(-0.00857208 5.20435e-05 3.16138e-22)
(-0.00861171 1.73916e-05 3.09384e-22)
(-0.00859402 -1.43561e-05 0)
(-0.00852406 -4.26008e-05 0)
(-0.00840791 -6.68509e-05 0)
(-0.00825234 -8.68483e-05 -1.40887e-22)
(-0.00806446 -0.00010254 -1.36356e-22)
(-0.00785142 -0.000114044 0)
(-0.00762019 -0.000121615 -2.60459e-22)
(-0.00737729 -0.000125614 -2.54228e-22)
(-0.00712867 -0.000126469 0)
(-0.00687959 -0.00012465 -2.41536e-22)
(-0.00663455 -0.000120635 -4.75193e-22)
(-0.0063973 -0.000114892 2.31605e-22)
(-0.00617079 -0.000107862 2.29323e-22)
(-0.00595728 -9.99428e-05 0)
(-0.00575835 -9.14842e-05 0)
(-0.00557501 -8.27839e-05 0)
(-0.00540775 -7.40874e-05 2.123e-22)
(-0.00525665 -6.55901e-05 -2.10491e-22)
(-0.00512145 -5.74414e-05 -4.13513e-22)
(-0.00500159 -4.975e-05 2.03313e-22)
(-0.00489633 -4.25896e-05 -2.0146e-22)
(-0.00480479 -3.60041e-05 -1.979e-22)
(-0.00472598 -3.00138e-05 0)
(-0.00465885 -2.46201e-05 0)
(-0.00460236 -1.981e-05 1.9062e-22)
(-0.00455545 -1.556e-05 0)
(-0.0045171 -1.1839e-05 0)
(-0.00448632 -8.61137e-06 -3.6526e-22)
(-0.00446218 -5.8385e-06 0)
(-0.00444382 -3.48057e-06 -1.77425e-22)
(-0.00443042 -1.49766e-06 1.74654e-22)
(-0.00442125 1.49315e-07 0)
(-0.00441563 1.49715e-06 -1.6923e-22)
(-0.00441297 2.58015e-06 0)
(-0.00441271 3.43244e-06 0)
(-0.00441439 4.08716e-06 1.60748e-22)
(-0.00441761 4.57656e-06 -3.15616e-22)
(-0.00442203 4.93252e-06 1.54889e-22)
(-0.00442737 5.19021e-06 0)
(-0.00443345 5.39837e-06 0)
(-0.00444014 5.58098e-06 -1.45721e-22)
(-0.00444739 5.76338e-06 0)
(-0.00445522 5.97402e-06 -1.39486e-22)
(-0.00446369 6.24133e-06 0)
(-0.00447287 6.55115e-06 0)
(-0.00448282 6.87586e-06 0)
(-0.00449347 7.16085e-06 -1.26682e-22)
(-0.00450456 7.31314e-06 0)
(-0.0045155 7.1936e-06 1.19925e-22)
(-0.00452525 6.61319e-06 0)
(-0.00453215 5.35379e-06 0)
(-0.00453384 3.19341e-06 -2.18384e-22)
(-0.00452702 -3.16674e-07 2.10889e-22)
(-0.00450733 -5.57012e-06 0)
(-0.00446906 -1.31602e-05 0)
(-0.00440402 -2.42802e-05 0)
(-0.00430081 -4.14944e-05 -5.37481e-22)
(-0.00415976 -6.91793e-05 0)
(-0.00382577 -0.000136559 3.24539e-22)
(2.42726e-05 -0.000456973 -4.45418e-24)
(0.000169412 -0.00101664 -4.7298e-23)
(0.000347212 -0.00127718 0)
(0.000503042 -0.00129141 4.51544e-23)
(0.000578363 -0.00110802 0)
(0.000527992 -0.00077058 0)
(0.000316402 -0.000316687 4.388e-24)
(-8.51692e-05 0.000222152 -1.09368e-23)
(-0.000700002 0.000820503 -1.19366e-23)
(-0.00154687 0.00145847 -2.90417e-24)
(-0.00264081 0.0021212 0)
(-0.00399392 0.00279828 0)
(-0.00561607 0.00348294 -6.04322e-24)
(-0.00751539 0.00417134 -2.28442e-23)
(-0.00969872 0.00486174 3.42866e-23)
(-0.0121718 0.00555376 0)
(-0.0149391 0.00624755 5.92279e-23)
(-0.0180042 0.00694307 -4.49885e-23)
(-0.0213686 0.00763946 0)
(-0.025032 0.00833452 1.01706e-22)
(-0.0289909 0.00902427 6.77871e-23)
(-0.0332384 0.00970272 -1.33058e-22)
(-0.0377634 0.0103618 -8.37586e-23)
(-0.0425493 0.0109915 0)
(-0.0475741 0.0115799 1.82932e-22)
(-0.0528094 0.0121136 1.99702e-22)
(-0.0582203 0.0125782 0)
(-0.0637652 0.0129585 2.32114e-22)
(-0.0693962 0.0132395 0)
(-0.0750594 0.0134065 2.61044e-22)
(-0.0806954 0.0134459 1.38879e-22)
(-0.0862406 0.0133457 0)
(-0.091628 0.0130962 0)
(-0.0967888 0.0126902 0)
(-0.101654 0.0121235 0)
(-0.106154 0.0113953 0)
(-0.110223 0.0105084 0)
(-0.113799 0.00946901 2.80745e-22)
(-0.116824 0.00828688 -3.88699e-22)
(-0.119247 0.00697512 0)
(-0.121024 0.00554976 0)
(-0.12212 0.00402938 0)
(-0.122505 0.00243451 -2.86921e-23)
(-0.122162 0.000787262 8.25608e-23)
(-0.121079 -0.000888999 1.01103e-22)
(-0.119259 -0.00257034 2.07434e-24)
(-0.116709 -0.00423333 4.00606e-23)
(-0.113443 -0.00585584 -1.3242e-22)
(-0.109487 -0.00741737 3.39799e-23)
(-0.104869 -0.00889942 -2.24391e-22)
(-0.0996264 -0.0102859 0)
(-0.0937993 -0.0115635 -3.55738e-22)
(-0.0874327 -0.0127217 3.46215e-23)
(-0.0805744 -0.0137532 0)
(-0.0732743 -0.0146535 0)
(-0.0655829 -0.0154209 6.08373e-22)
(-0.0575513 -0.0160563 0)
(-0.0492294 -0.0165626 0)
(-0.0406662 -0.0169442 -7.24953e-22)
(-0.0319089 -0.0172065 -1.6001e-21)
(-0.023003 -0.0173553 8.68812e-22)
(-0.013992 -0.017396 0)
(-0.00491878 -0.0173328 -9.09754e-22)
(0.00417325 -0.0171685 0)
(0.0132459 -0.0169043 -8.0172e-22)
(0.0222543 -0.0165393 -8.37444e-22)
(0.0311525 -0.0160715 1.51583e-21)
(0.0398918 -0.0154969 6.73193e-22)
(0.0484197 -0.0148099 0)
(0.056678 -0.0140044 -1.1765e-21)
(0.0646029 -0.0130741 0)
(0.0721243 -0.012014 -1.38498e-21)
(0.0791662 -0.0108209 -7.57083e-22)
(0.085647 -0.00949464 -6.08303e-22)
(0.0914806 -0.00803939 4.58591e-22)
(0.0965785 -0.00646431 -4.92876e-22)
(0.100852 -0.00478445 0)
(0.104213 -0.00302134 0)
(0.106584 -0.00120318 -1.04217e-22)
(0.107894 0.000634674 -3.14752e-22)
(0.108088 0.00245079 0)
(0.107132 0.0041997 1.94774e-22)
(0.105019 0.00583381 0)
(0.101772 0.00730536 -8.35306e-22)
(0.0974469 0.00856932 1.57668e-23)
(0.092135 0.00958683 -8.56808e-24)
(0.0859635 0.0103286 6.63807e-22)
(0.0790913 0.0107776 0)
(0.0717038 0.0109316 -6.68754e-22)
(0.0640032 0.010803 -1.81593e-23)