/*--------------------------------*- C++ -*----------------------------------*\
  =========                 |
  \\      /  F ield         | OpenFOAM: The Open Source CFD Toolbox
   \\    /   O peration     | Website:  https://openfoam.org
    \\  /    A nd           | Version:  8
     \\/     M anipulation  |
\*---------------------------------------------------------------------------*/
FoamFile
{
    version     2.0;
    format      ascii;
    class       volScalarField;
    location    "0.96";
    object      p;
}
// * * * * * * * * * * * * * * * * * * * * * * * * * * * * * * * * * * * * * //

dimensions      [0 2 -2 0 0 0 0];

internalField   nonuniform List<scalar> 
12225
(
-0.00144155
-0.00141889
-0.00139681
-0.00138009
-0.0013728
-0.00137672
-0.00139339
-0.00142431
-0.00147123
-0.00153651
-0.00162352
-0.00173756
-0.00188734
-0.00208823
-0.00236839
-0.00277986
-0.00347151
-0.00502919
-0.00144136
-0.00142112
-0.00140131
-0.0013866
-0.00138112
-0.00138668
-0.0014049
-0.00143726
-0.00148556
-0.00155209
-0.00164018
-0.00175489
-0.00190436
-0.00210226
-0.00237172
-0.00275173
-0.00331851
-0.00436186
-0.00144206
-0.00142401
-0.00140672
-0.00139432
-0.00139091
-0.00139837
-0.00141831
-0.00145225
-0.00150194
-0.0015696
-0.00165835
-0.00177283
-0.00192012
-0.00211127
-0.0023627
-0.00269636
-0.00312161
-0.00377258
-0.00144386
-0.00142725
-0.00141206
-0.00140177
-0.00140027
-0.00140943
-0.00143088
-0.0014661
-0.00151674
-0.00158487
-0.00167328
-0.0017859
-0.00192833
-0.00210842
-0.00233566
-0.0026177
-0.00293318
-0.00334197
-0.00144664
-0.00143083
-0.00141733
-0.0014089
-0.00140912
-0.00141979
-0.0014425
-0.00147865
-0.00152976
-0.00159765
-0.00168462
-0.00179372
-0.00192883
-0.00209446
-0.00229403
-0.00252536
-0.00275815
-0.00301157
-0.00145023
-0.00143474
-0.00142257
-0.00141579
-0.00141753
-0.00142952
-0.00145323
-0.00148996
-0.00154105
-0.00160798
-0.00169247
-0.00179655
-0.00192232
-0.00207126
-0.00224212
-0.00242678
-0.0025955
-0.00274776
-0.00145445
-0.00143888
-0.00142769
-0.00142234
-0.00142541
-0.00143849
-0.00146293
-0.00149987
-0.00155041
-0.00161565
-0.00169666
-0.00179443
-0.00190937
-0.00204049
-0.00218337
-0.00232714
-0.00244647
-0.00253414
-0.00145904
-0.00144312
-0.00143259
-0.00142842
-0.00143259
-0.00144652
-0.00147137
-0.00150811
-0.00155757
-0.00162041
-0.00169706
-0.00178748
-0.00189067
-0.00200383
-0.00212077
-0.00223013
-0.0023123
-0.00236006
-0.00146369
-0.00144725
-0.0014371
-0.00143388
-0.00143891
-0.0014534
-0.00147833
-0.00151446
-0.0015623
-0.0016221
-0.00169364
-0.00177601
-0.00186712
-0.001963
-0.00205682
-0.00213822
-0.00219313
-0.00221681
-0.00146801
-0.001451
-0.00144102
-0.00143853
-0.00144417
-0.00145894
-0.00148362
-0.00151871
-0.00156445
-0.00162066
-0.00168655
-0.00176052
-0.00183972
-0.00191961
-0.00199357
-0.0020529
-0.00208822
-0.00209755
-0.00147158
-0.00145404
-0.00144412
-0.00144215
-0.00144818
-0.00146295
-0.00148703
-0.0015207
-0.00156392
-0.00161611
-0.00167604
-0.00174159
-0.00180948
-0.00187507
-0.0019324
-0.00197466
-0.00199605
-0.00199688
-0.00147374
-0.00145585
-0.00144596
-0.00144432
-0.00145048
-0.001465
-0.00148824
-0.00152029
-0.00156087
-0.00160913
-0.00166353
-0.00172163
-0.00178
-0.00183419
-0.00187898
-0.00190913
-0.0019212
-0.0019171
-0.00147438
-0.00145673
-0.00144686
-0.00144548
-0.00145166
-0.00146574
-0.00148792
-0.00151811
-0.00155583
-0.00159999
-0.00164885
-0.00169982
-0.00174952
-0.00179386
-0.00182848
-0.00184951
-0.00185513
-0.00184745
-0.00147277
-0.00145603
-0.00144637
-0.0014452
-0.00145127
-0.00146462
-0.00148532
-0.00151311
-0.00154732
-0.00158671
-0.0016294
-0.00167279
-0.00171372
-0.00174861
-0.001774
-0.00178724
-0.0017876
-0.00177698
-0.00146735
-0.00145235
-0.00144341
-0.0014425
-0.00144828
-0.00146056
-0.00147927
-0.00150403
-0.00153406
-0.00156804
-0.00160408
-0.00163972
-0.00167211
-0.00169828
-0.00171558
-0.00172226
-0.00171815
-0.00170477
-0.0014559
-0.00144383
-0.00143648
-0.00143604
-0.00144136
-0.00145217
-0.0014683
-0.00148935
-0.00151449
-0.00154246
-0.00157146
-0.0015993
-0.00162353
-0.00164173
-0.0016519
-0.00165284
-0.00164448
-0.00162785
-0.00143585
-0.00142824
-0.00142377
-0.00142421
-0.00142895
-0.00143782
-0.0014507
-0.00146722
-0.00148665
-0.00150787
-0.00152932
-0.00154912
-0.00156525
-0.00157573
-0.001579
-0.00157412
-0.00156083
-0.0015397
-0.00140514
-0.00140369
-0.00140353
-0.00140536
-0.00140937
-0.00141574
-0.00142451
-0.00143545
-0.00144803
-0.00146134
-0.00147413
-0.00148487
-0.0014919
-0.00149363
-0.00148875
-0.0014764
-0.0014561
-0.00142793
-0.00136494
-0.0013708
-0.00137569
-0.00137892
-0.00138159
-0.00138443
-0.00138772
-0.00139145
-0.00139534
-0.0013988
-0.00140092
-0.00140056
-0.00139642
-0.00138723
-0.00137187
-0.00134944
-0.00131918
-0.00128104
-0.001335
-0.00134665
-0.00135535
-0.00135929
-0.00136024
-0.0013592
-0.00135653
-0.00135233
-0.00134649
-0.00133865
-0.00132822
-0.00131444
-0.00129643
-0.00127332
-0.00124438
-0.00120901
-0.00116659
-0.00111669
-0.00132036
-0.00133492
-0.00134537
-0.00134944
-0.00134916
-0.00134546
-0.00133864
-0.00132881
-0.0013159
-0.00129967
-0.00127974
-0.00125559
-0.00122663
-0.00119232
-0.00115218
-0.0011059
-0.00105307
-0.000993486
-0.00131616
-0.00133177
-0.00134281
-0.00134693
-0.00134599
-0.00134063
-0.00133099
-0.00131707
-0.00129879
-0.00127596
-0.00124829
-0.00121545
-0.0011771
-0.00113292
-0.00108273
-0.00102646
-0.000964005
-0.000895361
-0.0013189
-0.00133431
-0.00134535
-0.00134975
-0.00134884
-0.00134284
-0.00133166
-0.00131519
-0.00129325
-0.00126565
-0.00123217
-0.00119258
-0.0011467
-0.00109443
-0.0010358
-0.000970963
-0.000900139
-0.000823574
-0.00132532
-0.00133992
-0.00135087
-0.00135598
-0.00135577
-0.00135002
-0.00133841
-0.00132069
-0.0012966
-0.00126589
-0.00122835
-0.00118381
-0.0011322
-0.00107356
-0.00100807
-0.000936094
-0.000858091
-0.000774596
-0.00133291
-0.00134662
-0.0013578
-0.00136409
-0.00136516
-0.00136035
-0.00134917
-0.00133123
-0.00130616
-0.00127368
-0.00123352
-0.00118556
-0.00112975
-0.00106624
-0.000995312
-0.000917457
-0.000833341
-0.000743772
-0.00133999
-0.00135315
-0.00136508
-0.00137303
-0.00137581
-0.00137243
-0.00136228
-0.00134484
-0.00131967
-0.00128641
-0.00124477
-0.00119457
-0.00113581
-0.00106864
-0.00099345
-0.000910795
-0.000821473
-0.000726539
-0.00134561
-0.00135883
-0.00137215
-0.00138216
-0.00138693
-0.00138531
-0.00137656
-0.00136011
-0.00133545
-0.00130215
-0.00125984
-0.00120832
-0.00114755
-0.0010777
-0.000999174
-0.000912592
-0.00081882
-0.000719092
-0.0013493
-0.00136346
-0.00137886
-0.00139124
-0.00139822
-0.00139855
-0.00139146
-0.00137634
-0.00135263
-0.0013198
-0.00127744
-0.00122528
-0.00116323
-0.00109143
-0.00101029
-0.000920452
-0.00082281
-0.000718701
-0.00135093
-0.00136706
-0.00138511
-0.0014001
-0.0014094
-0.00141179
-0.00140652
-0.00139295
-0.00137047
-0.00133851
-0.00129656
-0.00124427
-0.00118149
-0.00110832
-0.00102512
-0.000932555
-0.000831513
-0.000723363
-0.00135101
-0.00136946
-0.00138997
-0.00140715
-0.00141837
-0.00142246
-0.00141871
-0.00140649
-0.00138515
-0.00135405
-0.00131263
-0.00126046
-0.00119734
-0.00112331
-0.00103871
-0.000944173
-0.00084059
-0.000729335
0.000423133
0.000430644
0.000430615
0.000417914
0.000392607
0.000355578
0.000307718
0.000249982
0.000183366
0.000108847
2.72981e-05
-6.05146e-05
-0.000153938
-0.00025242
-0.00035549
-0.000462726
-0.000573727
-0.000688074
-0.000805299
-0.000924848
-0.00104605
-0.00116809
-0.00128998
-0.00141056
-0.00152844
-0.00164204
-0.00174955
-0.00184899
-0.00193815
-0.00201466
-0.00207603
-0.00211967
-0.00214291
-0.00214315
-0.00211782
-0.00206455
-0.00198117
-0.00186585
-0.00171716
-0.00153416
-0.00131646
-0.00106429
-0.000778551
-0.000460863
-0.000113533
0.000260503
0.000657425
0.00107294
0.00150214
0.00193966
0.00237976
0.00281646
0.00324368
0.00365535
0.00404554
0.00440861
0.00473928
0.00503271
0.00528465
0.00549141
0.00564994
0.00575784
0.00581339
0.00581553
0.00576388
0.00565865
0.00550071
0.00529158
0.00503345
0.00472913
0.00438209
0.00399646
0.00357705
0.00312931
0.00265935
0.00217385
0.00168001
0.00118536
0.000697702
0.000224787
-0.000225811
-0.00064702
-0.00103251
-0.00137691
-0.00167604
-0.00192709
-0.00212875
-0.00228123
-0.00238619
-0.00244663
-0.00246667
-0.00245128
-0.002406
-0.00233663
-0.00224892
-0.00214839
-0.00204009
-0.00192852
-0.00181757
-0.00171047
-0.00160985
-0.00151769
-0.00143535
-0.00136361
-0.00130263
-0.00125202
-0.00121089
-0.00117799
-0.0011518
-0.00113072
-0.00111315
-0.00109762
-0.00108287
-0.00106791
-0.001052
-0.00103466
-0.00101565
-0.000994943
-0.000972671
-0.000949101
-0.000924587
-0.000899557
-0.000874444
-0.000849683
-0.000825681
-0.000802795
-0.000781322
-0.000761485
-0.000743435
-0.00072725
-0.000712941
-0.000700459
-0.000689704
-0.000680539
-0.000672795
-0.000666289
-0.000660827
-0.000656214
-0.000652261
-0.00064879
-0.000645637
-0.000642655
-0.000639715
-0.000636703
-0.000633527
-0.000630107
-0.000626382
-0.000622303
-0.000617832
-0.000612949
-0.000607628
-0.000601866
-0.000595661
-0.000589016
-0.00058194
-0.000574445
-0.000566544
-0.000558253
-0.000549589
-0.00054057
-0.000531209
-0.000521521
-0.000511516
-0.000501201
-0.000490577
-0.000479637
-0.000468371
-0.000456759
-0.000444775
-0.000432389
-0.000419568
-0.000406263
-0.00039246
-0.000378135
-0.000363285
-0.000347943
-0.000332185
-0.000316253
-0.000301548
-0.000281316
0.000436218
0.000442747
0.000442143
0.000430038
0.000407013
0.000374074
0.000331986
0.000281467
0.000223249
0.000158027
8.64449e-05
9.06558e-06
-7.36304e-05
-0.000161231
-0.00025338
-0.000349753
-0.000450035
-0.000553889
-0.000660931
-0.000770696
-0.000882616
-0.00099599
-0.00110996
-0.0012235
-0.00133538
-0.00144418
-0.00154827
-0.00164581
-0.00173477
-0.00181291
-0.00187787
-0.00192714
-0.00195813
-0.00196824
-0.00195491
-0.00191568
-0.00184828
-0.00175074
-0.00162142
-0.00145915
-0.00126329
-0.00103379
-0.000771254
-0.000477001
-0.000153031
0.000197957
0.000572558
0.000966636
0.00137549
0.00179393
0.00221637
0.00263695
0.00304967
0.00344851
0.00382757
0.00418121
0.0045041
0.0047914
0.00503878
0.00524248
0.00539941
0.00550709
0.00556374
0.00556818
0.00551994
0.00541922
0.00526693
0.00506464
0.00481453
0.00451942
0.00418282
0.0038089
0.0034025
0.00296913
0.00251491
0.00204651
0.0015711
0.00109614
0.000629288
0.000178122
-0.000250066
-0.000648496
-0.00101131
-0.0013336
-0.00161167
-0.00184324
-0.00202752
-0.00216517
-0.00225824
-0.00231001
-0.00232473
-0.00230738
-0.00226333
-0.00219808
-0.00211701
-0.00202511
-0.00192693
-0.00182641
-0.0017269
-0.00163115
-0.00154137
-0.00145919
-0.00138576
-0.00132169
-0.00126711
-0.00122167
-0.00118462
-0.00115489
-0.00113116
-0.00111205
-0.00109614
-0.00108214
-0.00106891
-0.00105553
-0.0010413
-0.00102574
-0.0010086
-0.000989802
-0.000969439
-0.000947726
-0.000924976
-0.000901556
-0.000877875
-0.000854345
-0.000831354
-0.000809255
-0.000788345
-0.000768859
-0.000750965
-0.00073476
-0.000720279
-0.0007075
-0.000696348
-0.000686711
-0.000678445
-0.000671386
-0.000665359
-0.000660186
-0.000655689
-0.000651702
-0.000648066
-0.000644639
-0.000641295
-0.000637923
-0.000634428
-0.000630732
-0.000626768
-0.000622486
-0.000617847
-0.00061282
-0.000607388
-0.000601539
-0.000595267
-0.000588573
-0.000581464
-0.000573947
-0.000566036
-0.000557743
-0.000549083
-0.000540072
-0.000530723
-0.000521049
-0.000511059
-0.00050076
-0.000490152
-0.000479231
-0.000467987
-0.000456403
-0.000444457
-0.000432122
-0.00041937
-0.000406173
-0.000392507
-0.000378361
-0.000363748
-0.000348718
-0.000333374
-0.000317993
-0.000303945
-0.000284615
0.000503896
0.000504788
0.000498797
0.000483156
0.000458628
0.000426134
0.000386311
0.000339695
0.000286797
0.000228079
0.000163941
9.47169e-05
2.06725e-05
-5.79792e-05
-0.000141066
-0.000228437
-0.00031994
-0.000415399
-0.000514587
-0.000617199
-0.000722825
-0.000830926
-0.00094081
-0.00105161
-0.00116225
-0.00127146
-0.00137774
-0.00147936
-0.00157435
-0.00166054
-0.00173555
-0.00179684
-0.00184175
-0.00186752
-0.00187143
-0.00185078
-0.00180308
-0.00172605
-0.00161779
-0.00147681
-0.00130218
-0.00109357
-0.000851332
-0.000576539
-0.000270922
6.28532e-05
0.000421508
0.000800987
0.00119662
0.00160322
0.00201516
0.00242653
0.00283128
0.0032233
0.00359662
0.00394552
0.00426461
0.00454899
0.00479428
0.00499669
0.0051531
0.00526104
0.0053187
0.00532491
0.00527918
0.0051817
0.00503341
0.00483589
0.00459134
0.00430262
0.00397325
0.00360746
0.00321015
0.00278689
0.0023439
0.00188794
0.00142625
0.000966408
0.000516092
8.29137e-05
-0.000325863
-0.000703682
-0.00104482
-0.00134473
-0.00160017
-0.0018094
-0.00197219
-0.00208987
-0.00216509
-0.00220172
-0.00220446
-0.00217859
-0.00212964
-0.00206303
-0.00198388
-0.00189682
-0.00180584
-0.00171429
-0.0016249
-0.00153982
-0.00146072
-0.00138879
-0.00132482
-0.00126923
-0.00122202
-0.00118284
-0.00115101
-0.00112557
-0.0011054
-0.00108926
-0.00107593
-0.00106426
-0.00105322
-0.00104197
-0.00102987
-0.00101645
-0.00100144
-0.000984763
-0.000966456
-0.0009467
-0.000925768
-0.000903998
-0.00088177
-0.000859474
-0.000837492
-0.000816171
-0.000795816
-0.000776673
-0.000758926
-0.000742694
-0.000728036
-0.000714954
-0.000703398
-0.000693281
-0.000684482
-0.000676858
-0.000670252
-0.000664501
-0.000659441
-0.000654915
-0.000650772
-0.000646877
-0.000643105
-0.000639347
-0.00063551
-0.000631511
-0.000627287
-0.000622782
-0.000617954
-0.00061277
-0.000607211
-0.000601259
-0.000594907
-0.000588154
-0.000581001
-0.000573455
-0.000565526
-0.000557225
-0.000548565
-0.000539559
-0.00053022
-0.000520558
-0.000510583
-0.0005003
-0.00048971
-0.000478811
-0.000467594
-0.000456046
-0.000444147
-0.000431877
-0.000419211
-0.000406133
-0.000392623
-0.000378682
-0.000364334
-0.000349646
-0.00033474
-0.000319889
-0.000306602
-0.000287763
0.000624825
0.000615158
0.00059877
0.000575602
0.000546109
0.000510716
0.000469837
0.000423818
0.000372943
0.000317427
0.000257418
0.000192995
0.000124176
5.09277e-05
-2.68179e-05
-0.000109146
-0.000196136
-0.000287839
-0.000384247
-0.000485271
-0.000590705
-0.000700201
-0.00081324
-0.000929098
-0.00104683
-0.00116523
-0.00128284
-0.0013979
-0.00150838
-0.00161197
-0.00170611
-0.001788
-0.00185468
-0.00190306
-0.00193002
-0.00193251
-0.00190759
-0.00185264
-0.00176538
-0.001644
-0.0014873
-0.00129475
-0.00106656
-0.000803635
-0.000507775
-0.000181648
0.000171274
0.00054679
0.000940041
0.00134561
0.00175764
0.00216998
0.00257632
0.00297038
0.00334598
0.00369723
0.00401867
0.00430528
0.00455267
0.00475705
0.00491532
0.00502505
0.00508451
0.0050926
0.00504893
0.0049537
0.00480783
0.00461292
0.00437116
0.0040854
0.00375918
0.00339672
0.00300297
0.00258358
0.00214487
0.0016938
0.0012378
0.000784706
0.00034247
-8.10248e-05
-0.000478258
-0.000842382
-0.00116758
-0.00144936
-0.00168466
-0.00187205
-0.00201182
-0.00210595
-0.00215789
-0.00217235
-0.00215486
-0.00211146
-0.00204825
-0.00197104
-0.00188506
-0.00179483
-0.00170398
-0.00161538
-0.00153113
-0.00145276
-0.00138129
-0.00131739
-0.00126143
-0.00121348
-0.00117334
-0.00114055
-0.00111437
-0.0010939
-0.00107806
-0.0010657
-0.0010557
-0.001047
-0.00103867
-0.00102992
-0.00102014
-0.00100892
-0.000995995
-0.000981258
-0.000964758
-0.000946657
-0.000927213
-0.000906754
-0.00088565
-0.000864289
-0.000843051
-0.000822292
-0.000802324
-0.000783405
-0.000765735
-0.000749451
-0.000734629
-0.000721289
-0.0007094
-0.000698892
-0.000689661
-0.00068158
-0.000674504
-0.000668282
-0.000662761
-0.000657791
-0.000653228
-0.000648941
-0.000644807
-0.000640721
-0.000636588
-0.000632328
-0.000627873
-0.000623169
-0.00061817
-0.000612844
-0.000607164
-0.000601114
-0.000594683
-0.000587868
-0.000580668
-0.000573088
-0.000565136
-0.000556821
-0.000548154
-0.000539147
-0.000529811
-0.000520156
-0.000510191
-0.000499922
-0.000489349
-0.000478472
-0.000467283
-0.000455771
-0.000443922
-0.000431719
-0.000419142
-0.000406178
-0.000392817
-0.000379068
-0.00036496
-0.000350569
-0.000336022
-0.000321568
-0.000308674
-0.000290462
0.000783009
0.000759333
0.000728926
0.000695351
0.000658417
0.000617901
0.000573831
0.000526256
0.000475154
0.00042043
0.000361922
0.000299405
0.000232599
0.00016118
8.47915e-05
3.06755e-06
-8.43473e-05
-0.000177771
-0.000277452
-0.000383541
-0.000496049
-0.000614817
-0.000739472
-0.000869392
-0.00100367
-0.00114108
-0.00128007
-0.00141871
-0.00155472
-0.00168547
-0.00180801
-0.00191909
-0.00201527
-0.00209294
-0.00214848
-0.0021783
-0.00217903
-0.0021476
-0.00208137
-0.00197827
-0.00183688
-0.00165659
-0.00143752
-0.00118067
-0.000887999
-0.000562451
-0.000207756
0.000171571
0.000570318
0.000982699
0.00140249
0.00182317
0.00223811
0.00264071
0.00302456
0.00338358
0.00371215
0.0040052
0.0042583
0.0044677
0.00463035
0.00474393
0.0048068
0.00481798
0.00477713
0.00468455
0.00454115
0.00434855
0.00410891
0.00382505
0.00350045
0.00313929
0.00274652
0.00232781
0.00188961
0.00143904
0.000983822
0.000532105
9.22832e-05
-0.000327293
-0.000718616
-0.00107432
-0.00138814
-0.00165525
-0.00187248
-0.00203848
-0.00215385
-0.00222114
-0.00224464
-0.00223005
-0.00218406
-0.00211383
-0.00202652
-0.00192877
-0.00182641
-0.00172416
-0.0016256
-0.00153321
-0.00144855
-0.00137246
-0.00130526
-0.00124696
-0.00119735
-0.00115605
-0.00112253
-0.00109607
-0.00107581
-0.00106076
-0.00104982
-0.00104186
-0.00103579
-0.00103059
-0.00102538
-0.00101944
-0.00101219
-0.00100324
-0.000992345
-0.000979426
-0.000964533
-0.000947835
-0.000929598
-0.000910154
-0.000889882
-0.00086918
-0.00084844
-0.00082803
-0.000808275
-0.00078945
-0.000771767
-0.000755379
-0.000740374
-0.000726788
-0.000714602
-0.000703758
-0.000694164
-0.000685701
-0.000678237
-0.000671626
-0.000665724
-0.000660385
-0.000655472
-0.000650855
-0.000646416
-0.000642049
-0.000637662
-0.000633173
-0.000628516
-0.000623634
-0.000618481
-0.000613021
-0.000607229
-0.000601085
-0.000594577
-0.000587699
-0.00058045
-0.000572832
-0.000564852
-0.000556517
-0.000547837
-0.000538823
-0.000529485
-0.000519833
-0.000509875
-0.000499616
-0.000489059
-0.000478202
-0.000467042
-0.00045557
-0.000443773
-0.000431638
-0.000419151
-0.000406301
-0.000393085
-0.000379515
-0.000365626
-0.000351495
-0.000337243
-0.000323089
-0.00031031
-0.000292976
0.000961306
0.000921844
0.000875519
0.000829949
0.000784267
0.00073731
0.000688607
0.000637823
0.000584547
0.000528295
0.000468531
0.000404674
0.0003361
0.000262154
0.000182161
9.54435e-05
1.34958e-06
-0.000100719
-0.000211271
-0.000330684
-0.000459158
-0.000596668
-0.000742917
-0.000897281
-0.00105877
-0.00122599
-0.00139711
-0.00156985
-0.00174149
-0.00190889
-0.00206852
-0.00221652
-0.00234881
-0.00246118
-0.00254939
-0.00260933
-0.00263715
-0.00262938
-0.00258309
-0.00249602
-0.00236666
-0.00219438
-0.00197938
-0.00172294
-0.00142738
-0.00109592
-0.000732707
-0.000342682
6.84717e-05
0.000494493
0.000928687
0.0013641
0.00179369
0.0022105
0.00260782
0.00297937
0.00331936
0.00362266
0.00388483
0.00410218
0.00427177
0.00439139
0.00445957
0.00447546
0.00443884
0.00435007
0.00421011
0.00402054
0.00378351
0.00350174
0.00317859
0.00281817
0.00242534
0.00200579
0.001566
0.00111326
0.000655574
0.000201479
-0.000240133
-0.00066031
-0.00105038
-0.0014023
-0.00170905
-0.00196515
-0.00216698
-0.00231296
-0.00240374
-0.00244222
-0.0024334
-0.00238403
-0.00230209
-0.00219622
-0.00207503
-0.00194651
-0.00181755
-0.00169356
-0.00157842
-0.00147451
-0.00138294
-0.00130388
-0.00123688
-0.00118116
-0.00113578
-0.00109974
-0.00107202
-0.00105153
-0.00103714
-0.00102768
-0.00102195
-0.00101876
-0.00101699
-0.00101565
-0.00101386
-0.00101093
-0.00100632
-0.000999659
-0.00099074
-0.000979502
-0.00096602
-0.000950487
-0.000933188
-0.00091448
-0.000894763
-0.000874457
-0.000853974
-0.000833703
-0.000813986
-0.000795114
-0.000777315
-0.000760752
-0.000745527
-0.000731683
-0.000719211
-0.000708061
-0.000698146
-0.000689355
-0.000681561
-0.000674623
-0.000668401
-0.000662753
-0.000657544
-0.000652648
-0.000647948
-0.00064334
-0.000638732
-0.000634044
-0.000629207
-0.000624164
-0.00061887
-0.000613288
-0.00060739
-0.000601155
-0.000594571
-0.00058763
-0.000580329
-0.00057267
-0.000564657
-0.000556297
-0.0005476
-0.000538574
-0.00052923
-0.000519576
-0.000509621
-0.00049937
-0.000488827
-0.000477992
-0.000466861
-0.000455429
-0.000443687
-0.000431623
-0.000419227
-0.000406492
-0.00039342
-0.000380022
-0.000366338
-0.000352439
-0.000338439
-0.000324525
-0.00031171
-0.000295434
0.00114111
0.00108544
0.00102281
0.000964905
0.000910054
0.000856061
0.000801845
0.000746585
0.000689392
0.00062932
0.000565399
0.000496643
0.000422047
0.000340597
0.000251278
0.000153097
4.51072e-05
-7.35528e-05
-0.000203616
-0.000345633
-0.000499918
-0.000666483
-0.00084498
-0.00103464
-0.00123422
-0.00144198
-0.00165563
-0.00187235
-0.00208879
-0.00230114
-0.00250514
-0.00269624
-0.00286965
-0.00302048
-0.00314392
-0.00323533
-0.00329043
-0.00330545
-0.00327724
-0.00320345
-0.00308259
-0.00291409
-0.00269845
-0.00243727
-0.00213323
-0.00178998
-0.00141214
-0.00100518
-0.000575328
-0.000129399
0.000325371
0.000781513
0.00123151
0.001668
0.00208394
0.00247278
0.00282857
0.00314609
0.00342092
0.00364942
0.00382879
0.00395701
0.00403276
0.00405539
0.00402482
0.00394152
0.00380649
0.00362126
0.00338792
0.00310908
0.00278797
0.00242852
0.00203549
0.00161449
0.00117203
0.000715522
0.000253222
-0.000205936
-0.000652528
-0.00107694
-0.00146972
-0.00182199
-0.00212584
-0.00237492
-0.00256478
-0.00269329
-0.00276082
-0.00277035
-0.00272733
-0.00263942
-0.00251591
-0.00236705
-0.00220324
-0.00203425
-0.00186854
-0.00171276
-0.00157154
-0.00144752
-0.0013416
-0.00125341
-0.00118171
-0.0011248
-0.00108087
-0.00104815
-0.00102494
-0.00100963
-0.00100069
-0.000996657
-0.000996144
-0.000997831
-0.00100052
-0.00100318
-0.00100492
-0.00100506
-0.00100309
-0.000998644
-0.000991559
-0.000981805
-0.000969492
-0.000954846
-0.000938192
-0.00091992
-0.000900465
-0.000880279
-0.000859804
-0.000839451
-0.000819587
-0.000800519
-0.000782489
-0.000765672
-0.000750176
-0.000736052
-0.000723295
-0.000711857
-0.000701655
-0.00069258
-0.000684505
-0.000677294
-0.000670806
-0.000664902
-0.000659449
-0.000654321
-0.000649403
-0.000644591
-0.000639795
-0.000634933
-0.000629938
-0.000624754
-0.000619332
-0.000613637
-0.000607639
-0.000601319
-0.00059466
-0.000587655
-0.000580301
-0.000572597
-0.000564548
-0.00055616
-0.00054744
-0.000538398
-0.000529042
-0.000519383
-0.000509428
-0.000499183
-0.000488652
-0.000477837
-0.000466737
-0.000455346
-0.000443659
-0.000431668
-0.000419365
-0.000406746
-0.000393814
-0.000380583
-0.00036709
-0.000353401
-0.00033962
-0.000325903
-0.000312969
-0.000297848
0.00130311
0.00123205
0.00115391
0.00108427
0.00102056
0.000959474
0.000899238
0.00083846
0.0007757
0.000709492
0.000638384
0.000560949
0.000475777
0.000381483
0.000276714
0.000160173
3.06518e-05
-0.000112926
-0.000271448
-0.000445548
-0.000635538
-0.000841333
-0.00106238
-0.00129759
-0.0015453
-0.00180323
-0.00206848
-0.00233751
-0.00260624
-0.00287005
-0.00312393
-0.00336255
-0.00358042
-0.00377203
-0.00393199
-0.00405522
-0.00413711
-0.00417363
-0.00416153
-0.0040984
-0.00398281
-0.0038144
-0.00359401
-0.00332359
-0.00300619
-0.00264596
-0.00224803
-0.00181847
-0.00136412
-0.000892392
-0.000411146
7.15652e-05
0.00054769
0.00100938
0.00144921
0.00186031
0.00223653
0.00257256
0.00286395
0.00310716
0.00329954
0.00343925
0.0035252
0.00355695
0.0035346
0.00345874
0.00333042
0.00315116
0.00292296
0.00264829
0.0023302
0.00197245
0.00157963
0.00115723
0.000711737
0.000250668
-0.00021751
-0.000683478
-0.00113728
-0.00156862
-0.00196721
-0.00232327
-0.00262791
-0.00287374
-0.00305528
-0.00316955
-0.00321636
-0.0031984
-0.00312129
-0.00299333
-0.00282494
-0.00262797
-0.00241475
-0.00219716
-0.00198565
-0.00178863
-0.001612
-0.00145911
-0.00133102
-0.00122698
-0.00114503
-0.00108257
-0.00103677
-0.0010049
-0.00098445
-0.000973129
-0.000968851
-0.000969745
-0.000974151
-0.000980545
-0.000987595
-0.000994178
-0.00099938
-0.00100249
-0.00100301
-0.0010006
-0.000995121
-0.000986584
-0.000975142
-0.000961069
-0.000944736
-0.00092658
-0.000907082
-0.000886732
-0.000866008
-0.000845351
-0.000825153
-0.000805738
-0.000787361
-0.000770206
-0.000754388
-0.000739957
-0.000726909
-0.000715197
-0.000704735
-0.000695413
-0.000687103
-0.000679666
-0.000672962
-0.000666851
-0.0006612
-0.000655884
-0.000650787
-0.000645807
-0.000640852
-0.000635843
-0.000630712
-0.000625402
-0.000619866
-0.000614068
-0.000607977
-0.000601574
-0.000594842
-0.000587774
-0.000580364
-0.000572613
-0.000564524
-0.000556102
-0.000547355
-0.000538292
-0.000528922
-0.000519253
-0.000509294
-0.000499052
-0.000488531
-0.000477736
-0.000466665
-0.000455316
-0.000443686
-0.000431769
-0.00041956
-0.000407055
-0.00039426
-0.000381189
-0.000367874
-0.000354376
-0.000340784
-0.000327231
-0.000314131
-0.000300193
0.00142831
0.00134366
0.00125186
0.00117183
0.00110007
0.00103218
0.000965633
0.000898409
0.000828474
0.000753801
0.000672434
0.000582486
0.00048214
0.000369644
0.000243328
0.00010163
-5.68665e-05
-0.000233377
-0.000428847
-0.000643878
-0.000878644
-0.00113281
-0.00140546
-0.00169502
-0.00199925
-0.0023152
-0.00263919
-0.00296692
-0.00329346
-0.00361339
-0.00392091
-0.00420995
-0.00447435
-0.00470803
-0.00490511
-0.00506012
-0.00516817
-0.00522503
-0.00522736
-0.00517276
-0.00505989
-0.00488866
-0.00466018
-0.00437672
-0.00404177
-0.00365996
-0.00323703
-0.00277965
-0.0022953
-0.00179211
-0.0012786
-0.000763484
-0.000255433
0.000237155
0.000706373
0.00114499
0.00154661
0.00190576
0.00221798
0.0024798
0.00268873
0.00284313
0.00294217
0.00298565
0.0029739
0.00290764
0.00278801
0.00261651
0.00239506
0.00212598
0.00181214
0.00145708
0.00106519
0.000641822
0.000193424
-0.000272439
-0.000747094
-0.00122086
-0.00168327
-0.00212334
-0.00252997
-0.0028924
-0.00320073
-0.00344646
-0.00362309
-0.00372649
-0.00375565
-0.00371273
-0.00360321
-0.00343566
-0.00322141
-0.00297371
-0.00270677
-0.00243469
-0.00217026
-0.00192403
-0.00170367
-0.00151374
-0.00135585
-0.0012292
-0.00113127
-0.00105854
-0.00100716
-0.000973299
-0.000953477
-0.000944574
-0.000943823
-0.000948834
-0.000957566
-0.000968225
-0.000979289
-0.000989514
-0.000997909
-0.00100373
-0.00100646
-0.0010058
-0.00100161
-0.000993959
-0.000983045
-0.000969198
-0.000952843
-0.000934476
-0.000914626
-0.000893833
-0.000872612
-0.000851439
-0.000830729
-0.000810825
-0.000791994
-0.000774425
-0.000758234
-0.000743471
-0.000730128
-0.000718152
-0.000707454
-0.000697918
-0.00068941
-0.000681791
-0.000674914
-0.00066864
-0.000662833
-0.000657366
-0.000652126
-0.000647008
-0.000641922
-0.000636788
-0.000631538
-0.000626117
-0.000620478
-0.000614584
-0.000608406
-0.000601922
-0.000595118
-0.000587985
-0.000580518
-0.000572716
-0.000564583
-0.000556124
-0.000547345
-0.000538256
-0.000528866
-0.000519183
-0.000509217
-0.000498975
-0.000488462
-0.000477684
-0.000466641
-0.000455335
-0.000443761
-0.000431918
-0.000419801
-0.000407409
-0.000394747
-0.000381827
-0.000368679
-0.000355353
-0.000341925
-0.000328509
-0.00031522
-0.000302435
0.00149923
0.0014037
0.00130089
0.00121236
0.00113373
0.00105955
0.000986529
0.000912016
0.000833364
0.000747984
0.000653409
0.000547305
0.000427457
0.000291777
0.000138318
-3.46959e-05
-0.000228815
-0.000445302
-0.000685054
-0.000948515
-0.00123559
-0.00154554
-0.00187696
-0.00222768
-0.00259473
-0.00297441
-0.00336222
-0.00375303
-0.00414107
-0.00452015
-0.00488368
-0.00522493
-0.00553714
-0.00581368
-0.00604826
-0.00623505
-0.00636888
-0.00644538
-0.00646109
-0.00641358
-0.00630163
-0.0061254
-0.00588616
-0.00558655
-0.00523047
-0.00482308
-0.00437068
-0.00388062
-0.00336109
-0.00282094
-0.00226945
-0.00171609
-0.00117023
-0.000640911
-0.000136591
0.000335048
0.000767284
0.00115446
0.00149205
0.00177664
0.00200588
0.00217839
0.00229359
0.00235155
0.00235287
0.00229845
0.00218955
0.00202766
0.00181461
0.0015526
0.00124429
0.000893009
0.000502929
7.9256e-05
-0.000371643
-0.000842153
-0.00132341
-0.00180541
-0.00227715
-0.002727
-0.00314305
-0.0035136
-0.00382771
-0.00407576
-0.00425023
-0.00434579
-0.00436041
-0.00429555
-0.00415624
-0.00395109
-0.00369194
-0.00339318
-0.00307075
-0.00274088
-0.0024188
-0.00211749
-0.0018468
-0.00161292
-0.00141847
-0.00126292
-0.00114345
-0.00105575
-0.000994922
-0.000956009
-0.000934424
-0.000926094
-0.000927455
-0.000935495
-0.0009477
-0.000961941
-0.000976455
-0.000989833
-0.00100098
-0.0010091
-0.00101366
-0.00101434
-0.00101105
-0.0010039
-0.000993136
-0.000979148
-0.000962425
-0.000943522
-0.000923028
-0.000901529
-0.000879586
-0.000857707
-0.00083633
-0.000815816
-0.00079644
-0.000778394
-0.000761792
-0.000746679
-0.00073304
-0.000720814
-0.000709902
-0.00070018
-0.00069151
-0.000683744
-0.000676733
-0.000670331
-0.000664402
-0.000658817
-0.000653461
-0.00064823
-0.000643033
-0.000637791
-0.000632437
-0.000626916
-0.000621181
-0.000615195
-0.000608932
-0.000602369
-0.000595492
-0.000588291
-0.000580763
-0.000572907
-0.000564725
-0.000556223
-0.000547407
-0.000538288
-0.000528872
-0.000519171
-0.000509194
-0.000498948
-0.00048844
-0.000477677
-0.000466662
-0.000455395
-0.000443877
-0.000432105
-0.000420078
-0.000407795
-0.00039526
-0.000382483
-0.000369488
-0.000356316
-0.00034303
-0.000329729
-0.000316247
-0.000304534
0.00150142
0.00139839
0.00128787
0.00119315
0.00110905
0.00102923
0.000949701
0.00086718
0.000778436
0.000680342
0.000569953
0.000444508
0.000301435
0.000138349
-4.69216e-05
-0.000256296
-0.000491381
-0.000753396
-0.00104308
-0.00136062
-0.00170552
-0.00207657
-0.00247174
-0.00288816
-0.00332214
-0.00376914
-0.00422386
-0.00468034
-0.00513204
-0.00557198
-0.00599292
-0.00638747
-0.00674832
-0.00706836
-0.00734086
-0.00755967
-0.00771933
-0.00781526
-0.00784387
-0.00780269
-0.00769054
-0.00750776
-0.00725576
-0.00693751
-0.00655731
-0.00612083
-0.00563499
-0.00510781
-0.00454823
-0.00396592
-0.00337097
-0.00277367
-0.0021842
-0.00161232
-0.00106716
-0.000556919
-8.87325e-05
0.000331489
0.000699104
0.00101073
0.00126418
0.00145828
0.00159276
0.001668
0.00168487
0.00164453
0.00154832
0.00139783
0.00119479
0.000941273
0.000639761
0.000293353
-9.39869e-05
-0.000517216
-0.00097004
-0.00144481
-0.00193247
-0.00242268
-0.00290397