/*--------------------------------*- C++ -*----------------------------------*\
  =========                 |
  \\      /  F ield         | OpenFOAM: The Open Source CFD Toolbox
   \\    /   O peration     | Website:  https://openfoam.org
    \\  /    A nd           | Version:  8
     \\/     M anipulation  |
\*---------------------------------------------------------------------------*/
FoamFile
{
    version     2.0;
    format      ascii;
    class       surfaceScalarField;
    location    "0.96";
    object      phi;
}
// * * * * * * * * * * * * * * * * * * * * * * * * * * * * * * * * * * * * * //

dimensions      [0 3 -1 0 0 0 0];

internalField   nonuniform List<scalar> 
24170
(
-1.85626e-12
1.85626e-12
3.55888e-12
-5.41514e-12
1.53573e-11
-1.17985e-11
3.21298e-11
-1.67725e-11
5.28138e-11
-2.0684e-11
7.67305e-11
-2.39167e-11
1.03424e-10
-2.66939e-11
1.32583e-10
-2.91585e-11
1.63999e-10
-3.14158e-11
1.97569e-10
-3.35699e-11
2.33303e-10
-3.5734e-11
2.71312e-10
-3.80094e-11
3.11692e-10
-4.03798e-11
3.53938e-10
-4.22457e-11
3.9394e-10
-4.00019e-11
4.0835e-10
-1.44103e-11
3.17838e-10
9.05122e-11
1.15008e-09
-8.32238e-10
-1.89598e-12
3.75224e-12
1.64585e-11
-2.37696e-11
5.41999e-11
-4.95398e-11
1.07166e-10
-6.97387e-11
1.7224e-10
-8.57574e-11
2.47236e-10
-9.89127e-11
3.30599e-10
-1.10057e-10
4.21138e-10
-1.19698e-10
5.17882e-10
-1.2816e-10
6.19991e-10
-1.35679e-10
7.26612e-10
-1.42355e-10
8.36501e-10
-1.47898e-10
9.46919e-10
-1.50798e-10
1.05035e-09
-1.45678e-10
1.12409e-09
-1.13741e-10
1.09693e-09
1.27507e-11
7.16363e-10
4.71078e-10
2.54104e-09
-6.74596e-10
1.47667e-12
2.27557e-12
3.64616e-11
-5.87545e-11
1.0442e-10
-1.17499e-10
1.98659e-10
-1.63978e-10
3.13927e-10
-2.01025e-10
4.46314e-10
-2.313e-10
5.92873e-10
-2.56616e-10
7.51158e-10
-2.77982e-10
9.18929e-10
-2.95931e-10
1.09386e-09
-3.10614e-10
1.27308e-09
-3.21568e-10
1.45201e-09
-3.26827e-10
1.6217e-09
-3.20489e-10
1.76202e-09
-2.86001e-10
1.82443e-09
-1.76147e-10
1.68918e-09
1.47993e-10
1.05781e-09
1.10246e-09
3.9839e-09
-3.85064e-10
8.15463e-12
-5.87906e-12
6.41527e-11
-1.14753e-10
1.66976e-10
-2.20322e-10
3.07713e-10
-3.04715e-10
4.78908e-10
-3.7222e-10
6.74721e-10
-4.27113e-10
8.90473e-10
-4.72368e-10
1.12201e-09
-5.09517e-10
1.36518e-09
-5.39107e-10
1.61529e-09
-5.60719e-10
1.86604e-09
-5.72316e-10
2.1075e-09
-5.68294e-10
2.32165e-09
-5.34637e-10
2.47272e-09
-4.37071e-10
2.4874e-09
-1.90824e-10
2.22036e-09
4.15029e-10
1.42237e-09
1.90045e-09
5.39579e-09
1.04855e-11
1.8234e-11
-2.41131e-11
9.99177e-11
-1.96436e-10
2.42477e-10
-3.62882e-10
4.34884e-10
-4.97122e-10
6.67419e-10
-6.04755e-10
9.32098e-10
-6.91792e-10
1.22214e-09
-7.62411e-10
1.53116e-09
-8.18536e-10
1.85239e-09
-8.60337e-10
2.17773e-09
-8.86055e-10
2.49613e-09
-8.90717e-10
2.7906e-09
-8.62769e-10
3.03245e-09
-7.76488e-10
3.17077e-09
-5.75386e-10
3.11578e-09
-1.35833e-10
2.72364e-09
8.07164e-10
1.82684e-09
2.79725e-09
6.73446e-09
4.8817e-10
3.15963e-11
-5.57093e-11
1.43785e-10
-3.08625e-10
3.30943e-10
-5.50039e-10
5.79867e-10
-7.46046e-10
8.78502e-10
-9.0339e-10
1.21651e-09
-1.0298e-09
1.58461e-09
-1.13052e-09
1.97364e-09
-1.20757e-09
2.37346e-09
-1.26015e-09
2.7716e-09
-1.28419e-09
3.15115e-09
-1.27026e-09
3.48707e-09
-1.19869e-09
3.74014e-09
-1.02956e-09
3.84796e-09
-6.83199e-10
3.71575e-09
-3.63256e-12
3.22191e-09
1.30101e-09
2.2832e-09
3.73597e-09
7.96486e-09
1.05279e-09
4.79745e-11
-1.03684e-10
1.95309e-10
-4.5596e-10
4.31585e-10
-7.86316e-10
7.41186e-10
-1.05565e-09
1.10962e-09
-1.27182e-09
1.52396e-09
-1.44414e-09
1.9721e-09
-1.57866e-09
2.44152e-09
-1.67699e-09
2.91803e-09
-1.73665e-09
3.38403e-09
-1.7502e-09
3.81609e-09
-1.70233e-09
4.18117e-09
-1.56377e-09
4.43139e-09
-1.27978e-09
4.4986e-09
-7.50409e-10
4.29437e-09
2.00597e-10
3.73135e-09
1.86403e-09
2.79851e-09
4.6688e-09
9.06847e-09
1.69491e-09
6.68986e-11
-1.70582e-10
2.53434e-10
-6.42495e-10
5.42563e-10
-1.07545e-09
9.15838e-10
-1.42892e-09
1.35618e-09
-1.71216e-09
1.84793e-09
-1.93589e-09
2.37576e-09
-2.10649e-09
2.92341e-09
-2.22463e-09
3.47208e-09
-2.28533e-09
3.99868e-09
-2.27679e-09
4.47326e-09
-2.17691e-09
4.85589e-09
-1.9464e-09
5.09335e-09
-1.51724e-09
5.11829e-09
-7.75347e-10
4.85752e-09
4.61369e-10
4.26213e-09
2.45942e-09
3.37555e-09
5.55538e-09
1.00321e-08
2.41189e-09
8.76627e-11
-2.58245e-10
3.16374e-10
-8.71206e-10
6.6073e-10
-1.4198e-09
1.09891e-09
-1.8671e-09
1.61111e-09
-2.22436e-09
2.17876e-09
-2.50354e-09
2.78316e-09
-2.71089e-09
3.40396e-09
-2.84544e-09
4.01764e-09
-2.89901e-09
4.59562e-09
-2.85478e-09
5.10227e-09
-2.68356e-09
5.49287e-09
-2.337e-09
5.71296e-09
-1.73733e-09
5.70208e-09
-7.64474e-10
5.40787e-09
7.55586e-10
4.81787e-09
3.04942e-09
4.01202e-09
6.36123e-09
1.08443e-08
3.19982e-09
1.0929e-10
-3.67535e-10
3.81489e-10
-1.1434e-09
7.81379e-10
-1.81969e-09
1.28323e-09
-2.36895e-09
1.86435e-09
-2.80548e-09
2.50323e-09
-3.14243e-09
3.17774e-09
-3.38539e-09
3.8635e-09
-3.5312e-09
4.53241e-09
-3.56792e-09
5.15114e-09
-3.4735e-09
5.67983e-09
-3.21226e-09
6.07183e-09
-2.72899e-09
6.27564e-09
-1.94115e-09
6.24245e-09
-7.31283e-10
5.94275e-09
1.05529e-09
5.39484e-09
3.59733e-09
4.69971e-09
7.05636e-09
1.1493e-08
4.05109e-09
1.30633e-10
-4.98168e-10
4.452e-10
-1.45797e-09
8.98029e-10
-2.27252e-09
1.45898e-09
-2.9299e-09
2.10243e-09
-3.44893e-09
2.80403e-09
-3.84404e-09
3.53843e-09
-4.11979e-09
4.27758e-09
-4.27036e-09
4.98952e-09
-4.27985e-09
5.63737e-09
-4.12135e-09
6.17925e-09
-3.75413e-09
6.56956e-09
-3.11931e-09
6.76356e-09
-2.13514e-09
6.72685e-09
-6.9458e-10
6.45201e-09
1.33014e-09
5.98064e-09
4.06869e-09
5.42295e-09
7.61405e-09
1.19641e-08
4.95182e-09
1.25899e-10
-6.24067e-10
4.20695e-10
-1.75277e-09
8.39157e-10
-2.69098e-09
1.35195e-09
-3.44269e-09
1.93513e-09
-4.03211e-09
2.56625e-09
-4.47516e-09
3.2218e-09
-4.77533e-09
3.87587e-09
-4.92443e-09
4.49937e-09
-4.90336e-09
5.05982e-09
-4.6818e-09
5.52209e-09
-4.2164e-09
5.85081e-09
-3.44803e-09
6.0154e-09
-2.29974e-09
5.9987e-09
-6.77876e-10
5.80917e-09
1.51966e-09
5.49421e-09
4.38366e-09
5.14735e-09
7.96091e-09
1.22131e-08
4.89831e-09
1.58082e-10
-7.82149e-10
5.23997e-10
-2.11868e-09
1.03601e-09
-3.20299e-09
1.65707e-09
-4.06376e-09
2.3577e-09
-4.73275e-09
3.11043e-09
-5.22789e-09
3.88663e-09
-5.55153e-09
4.65503e-09
-5.69282e-09
5.38117e-09
-5.6295e-09
6.02793e-09
-5.32856e-09
6.55734e-09
-4.74581e-09
6.93445e-09
-3.82514e-09
7.13381e-09
-2.49909e-09
7.14882e-09
-6.92888e-10
7.00293e-09
1.66554e-09
6.75899e-09
4.6276e-09
6.52037e-09
8.19952e-09
1.2318e-08
6.41552e-09
1.91299e-10
-9.73448e-10
6.30462e-10
-2.55785e-09
1.2367e-09
-3.80923e-09
1.96426e-09
-4.79132e-09
2.77796e-09
-5.54645e-09
3.64544e-09
-6.09537e-09
4.53339e-09
-6.43947e-09
5.40593e-09
-6.56536e-09
6.22468e-09
-6.44825e-09
6.95013e-09
-6.05401e-09
7.54474e-09
-5.34042e-09
7.97812e-09
-4.25852e-09
8.23433e-09
-2.75531e-09
8.32084e-09
-7.79389e-10
8.27704e-09
1.70934e-09
8.17884e-09
4.7258e-09
8.1342e-09
8.24416e-09
1.21864e-08
8.26583e-09
2.17985e-10
-1.19143e-09
7.14765e-10
-3.05462e-09
1.39249e-09
-4.48696e-09
2.19724e-09
-5.59607e-09
3.08947e-09
-6.43868e-09
4.03358e-09
-7.03948e-09
4.99363e-09
-7.39953e-09
5.93199e-09
-7.50372e-09
6.80986e-09
-7.32612e-09
7.58975e-09
-6.8339e-09
8.23962e-09
-5.99029e-09
8.73873e-09
-4.75763e-09
9.08475e-09
-3.10133e-09
9.30087e-09
-9.95514e-10
9.44082e-09
1.56939e-09
9.58862e-09
4.578e-09
9.85054e-09
7.98223e-09
1.16982e-08
1.03387e-08
2.22801e-10
-1.41423e-09
7.26923e-10
-3.55875e-09
1.40762e-09
-5.16765e-09
2.20792e-09
-6.39637e-09
3.08821e-09
-7.31897e-09
4.01412e-09
-7.96539e-09
4.95214e-09
-8.33755e-09
5.86856e-09
-8.42013e-09
6.73064e-09
-8.1882e-09
7.5097e-09
-7.61296e-09
8.18564e-09
-6.66623e-09
8.75248e-09
-5.32447e-09
9.22401e-09
-3.57286e-09
9.63817e-09
-1.40968e-09
1.00584e-08
1.14917e-09
1.057e-08
4.06636e-09
1.1271e-08
7.28131e-09
1.07113e-08
1.22579e-08
1.79554e-10
-1.59379e-09
5.81797e-10
-3.96099e-09
1.11935e-09
-5.7052e-09
1.74564e-09
-7.02266e-09
2.43057e-09
-8.0039e-09
3.14982e-09
-8.68464e-09
3.88129e-09
-9.06903e-09
4.6046e-09
-9.14344e-09
5.30256e-09
-8.88616e-09
5.9641e-09
-8.2745e-09
6.58812e-09
-7.29025e-09
7.18755e-09
-5.92389e-09
7.79264e-09
-4.17795e-09
8.45248e-09
-2.06952e-09
9.2336e-09
3.68046e-10
1.0215e-08
3.08494e-09
1.14798e-08
6.01654e-09
9.08646e-09
1.31046e-08
5.03295e-11
-1.64412e-09
1.57564e-10
-4.06822e-09
2.95608e-10
-5.84325e-09
4.53024e-10
-7.18007e-09
6.25517e-10
-8.17639e-09
8.12479e-10
-8.8716e-09
1.01616e-09
-9.2727e-09
1.24206e-09
-9.36935e-09
1.50027e-09
-9.14436e-09
1.80725e-09
-8.58148e-09
2.18797e-09
-7.67097e-09
2.67759e-09
-6.41351e-09
3.32219e-09
-4.82254e-09
4.17788e-09
-2.92522e-09
5.30804e-09
-7.62111e-10
6.77862e-09
1.61435e-09
8.65239e-09
4.14278e-09
6.75657e-09
1.09823e-08
-2.04109e-10
-1.44001e-09
-6.65014e-10
-3.60732e-09
-1.28856e-09
-5.2197e-09
-2.01976e-09
-6.44888e-09
-2.81734e-09
-7.37881e-09
-3.64265e-09
-8.0463e-09
-4.45508e-09
-8.46027e-09
-5.21021e-09
-8.61422e-09
-5.85896e-09
-8.49561e-09
-6.34751e-09
-8.09293e-09
-6.61767e-09
-7.40082e-09
-6.6078e-09
-6.42338e-09
-6.25447e-09
-5.17587e-09
-5.49489e-09
-3.6848e-09
-4.27006e-09
-1.98694e-09
-2.5288e-09
-1.26907e-10
-2.29795e-10
1.84377e-09
3.87301e-09
2.65376e-09
-2.93828e-10
-1.14618e-09
-9.58939e-10
-2.94221e-09
-1.862e-09
-4.31664e-09
-2.92878e-09
-5.3821e-09
-4.1067e-09
-6.20089e-09
-5.34897e-09
-6.80402e-09
-6.60835e-09
-7.20089e-09
-7.8348e-09
-7.38777e-09
-8.97524e-09
-7.35517e-09
-9.97429e-09
-7.09388e-09
-1.07758e-08
-6.5993e-09
-1.13247e-08
-5.87446e-09
-1.15692e-08
-4.93138e-09
-1.14627e-08
-3.79129e-09
-1.09661e-08
-2.48357e-09
-1.0049e-08
-1.04402e-09
-8.69257e-09
4.87359e-10
2.06878e-09
-6.88833e-09
-3.13531e-10
-8.3265e-10
-1.02824e-09
-2.2275e-09
-2.00804e-09
-3.33684e-09
-3.17803e-09
-4.21211e-09
-4.48486e-09
-4.89406e-09
-5.88124e-09
-5.40764e-09
-7.31978e-09
-5.76235e-09
-8.75071e-09
-5.95684e-09
-1.01216e-08
-5.98428e-09
-1.13783e-08
-5.83717e-09
-1.24666e-08
-5.511e-09
-1.33342e-08
-5.00684e-09
-1.3933e-08
-4.33261e-09
-1.42209e-08
-3.5034e-09
-1.41637e-08
-2.54073e-09
-1.37365e-08
-1.47123e-09
-1.29242e-08
-3.24924e-10
8.66374e-10
-1.17218e-08
-2.79252e-10
-5.53398e-10
-9.26873e-10
-1.57988e-09
-1.82911e-09
-2.43461e-09
-2.92208e-09
-3.11914e-09
-4.15862e-09
-3.65752e-09
-5.49649e-09
-4.06977e-09
-6.8936e-09
-4.36524e-09
-8.30598e-09
-4.54446e-09
-9.68741e-09
-4.60285e-09
-1.09901e-08
-4.53449e-09
-1.2166e-08
-4.33506e-09
-1.31688e-08
-4.00403e-09
-1.39556e-08
-3.54583e-09
-1.44888e-08
-2.97019e-09
-1.47378e-08
-2.29177e-09
-1.46798e-08
-1.52921e-09
-1.43008e-08
-7.03931e-10
1.60871e-10
-1.35953e-08
-2.20261e-10
-3.33137e-10
-7.47326e-10
-1.05281e-09
-1.49935e-09
-1.68258e-09
-2.42667e-09
-2.19182e-09
-3.4901e-09
-2.59409e-09
-4.65425e-09
-2.90561e-09
-5.88431e-09
-3.13518e-09
-7.14425e-09
-3.28452e-09
-8.39629e-09
-3.35082e-09
-9.60117e-09
-3.3296e-09
-1.07192e-08
-3.21706e-09
-1.17114e-08
-3.01179e-09
-1.25415e-08
-2.71574e-09
-1.3177e-08
-2.33465e-09
-1.3591e-08
-1.87782e-09
-1.37626e-08
-1.35759e-09
-1.36781e-08
-7.88449e-10
-1.86462e-10
-1.33307e-08
-1.56504e-10
-1.76633e-10
-5.51982e-10
-6.57336e-10
-1.13547e-09
-1.09909e-09
-1.86999e-09
-1.4573e-09
-2.72393e-09
-1.74015e-09
-3.66884e-09
-1.9607e-09
-4.67733e-09
-2.12669e-09
-5.72156e-09
-2.24029e-09
-6.77243e-09
-2.29994e-09
-7.79958e-09
-2.30245e-09
-8.77191e-09
-2.24474e-09
-9.65856e-09
-2.12514e-09
-1.04302e-08
-1.94415e-09
-1.106e-08
-1.70482e-09
-1.15251e-08
-1.41266e-09
-1.18074e-08
-1.07533e-09
-1.18938e-08
-7.0207e-10
-3.03367e-10
-1.17769e-08
-9.95676e-11
-7.70652e-11
-3.76081e-10
-3.80823e-10
-8.0289e-10
-6.72282e-10
-1.35264e-09
-9.07551e-10
-2.00028e-09
-1.09251e-09
-2.72372e-09
-1.23726e-09
-3.50242e-09
-1.34799e-09
-4.31594e-09
-1.42676e-09
-5.1431e-09
-1.47279e-09
-5.96163e-09
-1.48392e-09
-6.74847e-09
-1.4579e-09
-7.48036e-09
-1.39324e-09
-8.13477e-09
-1.28975e-09
-8.69076e-09
-1.14883e-09
-9.12992e-09
-9.73498e-10
-9.43708e-09
-7.68169e-10
-9.6008e-09
-5.38357e-10
-2.90396e-10
-9.61377e-09
-5.48345e-11
-2.22307e-11
-2.35147e-10
-2.0051e-10
-5.30309e-10
-3.77121e-10
-9.19803e-10
-5.18057e-10
-1.38427e-09
-6.28045e-10
-1.90728e-09
-7.14251e-10
-2.47419e-09
-7.81083e-10
-3.07085e-09
-8.30109e-10
-3.68266e-09
-8.60975e-10
-4.29421e-09
-8.72367e-10
-4.88931e-09
-8.62796e-10
-5.45141e-09
-8.31148e-10
-5.96412e-09
-7.7704e-10
-6.41195e-09
-7.00998e-10
-6.78096e-09
-6.04491e-10
-7.05928e-09
-4.89849e-10
-7.23756e-09
-3.60075e-10
-2.18622e-10
-7.30933e-09
-2.3649e-11
1.4183e-12
-1.32287e-10
-9.18723e-11
-3.23736e-10
-1.85672e-10
-5.82555e-10
-2.59237e-10
-8.94485e-10
-3.16115e-10
-1.24802e-09
-3.60712e-10
-1.63342e-09
-3.95685e-10
-2.04152e-09
-4.2201e-10
-2.46295e-09
-4.39543e-10
-2.88774e-09
-4.47578e-10
-3.30527e-09
-4.45267e-10
-3.70449e-09
-4.31927e-10
-4.0743e-09
-4.07228e-10
-4.404e-09
-3.71301e-10
-4.68374e-09
-3.24756e-10
-4.90493e-09
-2.68657e-10
-5.06057e-09
-2.04436e-10
-1.33722e-10
-5.14547e-09
-5.05247e-12
6.47076e-12
-6.38403e-11
-3.30845e-11
-1.77166e-10
-7.23467e-11
-3.33896e-10
-1.02507e-10
-5.24432e-10
-1.25579e-10
-7.41473e-10
-1.4367e-10
-9.79146e-10
-1.58012e-10
-1.2321e-09
-1.69058e-10
-1.49488e-09
-1.76761e-10
-1.76164e-09
-1.80817e-10
-2.02606e-09
-1.80851e-10
-2.28144e-09
-1.76542e-10
-2.52097e-09
-1.67706e-10
-2.73793e-09
-1.5434e-10
-2.92604e-09
-1.36638e-10
-3.07972e-09
-1.14978e-10
-3.19427e-09
-8.98865e-11
-6.19711e-11
-3.26602e-09
3.19571e-12
3.27505e-12
-2.3234e-11
-6.6548e-12
-7.9631e-11
-1.59497e-11
-1.59205e-10
-2.29336e-11
-2.56578e-10
-2.82058e-11
-3.67906e-10
-3.23415e-11
-4.90257e-10
-3.56609e-11
-6.21035e-10
-3.82806e-11
-7.57605e-10
-4.01904e-11
-8.97106e-10
-4.1316e-11
-1.03639e-09
-4.15624e-11
-1.17209e-09
-4.08446e-11
-1.30069e-09
-3.91075e-11
-1.41869e-09
-3.63369e-11
-1.52277e-09
-3.25633e-11
-1.60989e-09
-2.78604e-11
-1.67745e-09
-2.23261e-11
-1.60965e-11
-1.72332e-09
3.27505e-12
-3.37975e-12
-1.93294e-11
-4.2263e-11
-7.04688e-11
-1.0281e-10
-1.38471e-10
-1.76752e-10
-2.16942e-10
-2.58258e-10
-2.99821e-10
-3.40665e-10
-3.79773e-10
-4.1611e-10
-4.48673e-10
-4.76533e-10
-4.98859e-10
-5.14956e-10
3.77396e-11
-3.77396e-11
1.26963e-10
-8.92237e-11
2.43261e-10
-1.16298e-10
3.65187e-10
-1.21925e-10
4.76256e-10
-1.11069e-10
5.64283e-10
-8.80266e-11
6.2062e-10
-5.63372e-11
6.39449e-10
-1.88293e-11
6.17058e-10
2.23909e-11
5.51382e-10
6.56766e-11
4.41389e-10
1.09993e-10
2.86742e-10
1.54647e-10
8.74795e-11
1.99263e-10
-1.56218e-10
2.43697e-10
-4.44187e-10
2.87969e-10
-7.76375e-10
3.32188e-10
-1.15288e-09
3.76508e-10
-1.57396e-09
4.21079e-10
-2.03997e-09
4.6601e-10
-2.5513e-09
5.11332e-10
-3.10828e-09
5.56979e-10
-3.71105e-09
6.02766e-10
-4.35943e-09
6.48379e-10
-5.0528e-09
6.93371e-10
-5.78996e-09
7.37163e-10
-6.56901e-09
7.79048e-10
-7.38721e-09
8.18205e-10
-8.24093e-09
8.53715e-10
-9.12551e-09
8.84578e-10
-1.00352e-08
9.09738e-10
-1.09634e-08
9.2811e-10
-1.1902e-08
9.3861e-10
-1.28422e-08
9.40187e-10
-1.3774e-08
9.3186e-10
-1.46868e-08
9.1275e-10
-1.55689e-08
8.82119e-10
-1.64083e-08
8.39404e-10
-1.71925e-08
7.8425e-10
-1.79091e-08
7.16533e-10
-1.85455e-08
6.36394e-10
-1.90897e-08
5.44239e-10
-1.95305e-08
4.40759e-10
-1.98574e-08
3.26916e-10
-2.00613e-08
2.03949e-10
-2.01348e-08
7.34485e-11
-2.00712e-08
-6.35626e-11
-1.98668e-08
-2.04375e-10
-1.95194e-08
-3.47429e-10
-1.90288e-08
-4.90643e-10
-1.83968e-08
-6.31941e-10
-1.76275e-08
-7.69313e-10
-1.67267e-08
-9.00855e-10
-1.57018e-08
-1.02482e-09
-1.45622e-08
-1.13967e-09
-1.33181e-08
-1.24408e-09
-1.19811e-08
-1.33703e-09
-1.05633e-08
-1.41774e-09
-9.07761e-09
-1.4857e-09
-7.53692e-09
-1.54068e-09
-5.95428e-09
-1.58265e-09
-4.34252e-09
-1.61176e-09
-2.71422e-09
-1.6283e-09
-1.08161e-09
-1.6326e-09
5.43436e-10
-1.62505e-09
2.14955e-09
-1.60612e-09
3.72555e-09
-1.576e-09
5.26033e-09
-1.53478e-09
6.74297e-09
-1.48264e-09
8.16253e-09
-1.41956e-09
9.50793e-09
-1.34541e-09
1.07679e-08
-1.25999e-09
1.1931e-08
-1.16311e-09
1.29857e-08
-1.05467e-09
1.39204e-08
-9.34697e-10
1.47239e-08
-8.0351e-10
1.53857e-08
-6.61763e-10
1.58962e-08
-5.10537e-10
1.62476e-08
-3.51407e-10
1.64341e-08
-1.86494e-10
1.64524e-08
-1.82497e-11
1.63024e-08
1.49934e-10
1.59877e-08
3.14726e-10
1.55152e-08
4.72467e-10
1.48959e-08
6.19311e-10
1.41444e-08
7.5154e-10
1.32786e-08
8.65764e-10
1.23195e-08
9.59131e-10
1.129e-08
1.02953e-09
1.02142e-08
1.07573e-09
9.11675e-09
1.09749e-09
8.02118e-09
1.09556e-09
6.94954e-09
1.07165e-09
5.92129e-09
1.02825e-09
4.95281e-09
9.6848e-10
4.05696e-09
8.95857e-10
3.24291e-09
8.1405e-10
2.51621e-09
7.267e-10
1.87893e-09
6.37274e-10
1.32996e-09
5.48971e-10
8.65295e-10
4.64666e-10
4.78435e-10
3.8686e-10
1.60831e-10
3.17604e-10
-9.75712e-11
2.58402e-10
-3.07653e-10
2.10082e-10
-4.80352e-10
1.72699e-10
-6.25893e-10
1.45541e-10
-7.53128e-10
1.27235e-10
-8.69047e-10
1.15919e-10
-9.78541e-10
1.09494e-10
-1.08442e-09
1.05874e-10
-1.18763e-09
1.03209e-10
-1.28765e-09
1.00029e-10
-1.38297e-09
9.53119e-11
-1.47145e-09
8.84793e-11
-1.55079e-09
7.93435e-11
-1.61882e-09
6.80282e-11
-1.6737e-09
5.4882e-11
-1.7141e-09
4.03964e-11
-1.73923e-09
2.51375e-11
-1.74893e-09
9.69906e-12
-1.74352e-09
-5.4101e-12
-1.72391e-09
-1.96093e-11
-1.69137e-09
-3.25401e-11
-1.64752e-09
-4.38539e-11
-1.5942e-09
-5.33224e-11
-1.53338e-09
-6.08157e-11
-1.46708e-09
-6.62968e-11
-1.39727e-09
-6.98125e-11
-1.32579e-09
-7.148e-11
-1.25432e-09
-7.14717e-11
-1.18432e-09
-6.99994e-11
-1.11702e-09
-6.72985e-11
-1.05341e-09
-6.36139e-11
-9.94221e-10
-5.91872e-11
-9.39974e-10
-5.42472e-11
-8.90972e-10
-4.90018e-11
-8.47339e-10
-4.36333e-11
-8.09043e-10
-3.82959e-11
-7.75928e-10
-3.31148e-11
-7.47741e-10
-2.81869e-11
-7.24157e-10
-2.35833e-11
-7.04806e-10
-1.93517e-11
-6.89286e-10
-1.55199e-11
-6.77187e-10
-1.20989e-11
-6.681e-10
-9.08669e-12
-6.61629e-10
-6.47075e-12
-6.57398e-10
-4.23126e-12
-6.55054e-10
-2.34392e-12
-6.54269e-10
-7.8572e-13
-6.54772e-10
5.03626e-13
-6.56272e-10
1.50028e-12
-6.58551e-10
2.27851e-12
-6.61403e-10
2.85237e-12
-6.64654e-10
3.25066e-12
-6.68154e-10
3.49994e-12
-6.71779e-10
3.6251e-12
-6.75428e-10
3.64949e-12
-6.79023e-10
3.59493e-12
-6.82505e-10
3.48169e-12
-6.85833e-10
3.32837e-12
-6.88985e-10
3.15155e-12
-6.9195e-10
2.96526e-12
-6.9473e-10
2.78005e-12
-6.97332e-10
2.60186e-12
-6.99763e-10
2.43042e-12
-7.0202e-10
2.2576e-12
-7.04086e-10
2.06555e-12
-7.05911e-10
1.82492e-12
-7.07404e-10
1.4933e-12
-7.08417e-10
1.01329e-12
-7.08751e-10
3.34052e-13
-7.08068e-10
-6.83323e-13
-7.05978e-10
-2.08987e-12
-7.01946e-10
-4.03188e-12
-6.95254e-10
-6.69219e-12
-6.84915e-10
-1.03387e-11
-6.69402e-10
-1.55135e-11
-6.45412e-10
-2.39895e-11
-6.0913e-10
-3.62821e-11
-7.71655e-11
-5.31965e-10
6.23771e-11
-1.00117e-10
1.91074e-10
-2.1792e-10
3.41167e-10
-2.66391e-10
4.77415e-10
-2.58173e-10
5.71456e-10
-2.05111e-10
6.01103e-10
-1.17673e-10
5.49479e-10
-4.71374e-12
4.04122e-10
1.26527e-10
1.56174e-10
2.70339e-10
-2.00526e-10
4.22376e-10
-6.70027e-10
5.79494e-10
-1.25491e-09
7.39534e-10
-1.95678e-09
9.01132e-10
-2.77661e-09
1.06352e-09
-3.71499e-09
1.22636e-09
-4.77234e-09
1.38953e-09
-5.94889e-09
1.55305e-09
-7.24467e-09
1.71687e-09
-8.65943e-09
1.88077e-09
-1.01924e-08
2.04433e-09
-1.18422e-08
2.20675e-09
-1.36063e-08
2.36689e-09
-1.54811e-08
2.5232e-09
-1.74615e-08
2.67372e-09
-1.95404e-08
2.81607e-09
-2.17089e-08
2.94754e-09
-2.39558e-08
3.0651e-09
-2.62675e-08
3.16547e-09
-2.86282e-08
3.24523e-09
-3.10194e-08
3.30089e-09
-3.34202e-08
3.329e-09
-3.58079e-08
3.32627e-09
-3.81574e-08
3.28967e-09
-4.04421e-08
3.21655e-09
-4.26341e-08
3.10477e-09
-4.47047e-08
2.95275e-09
-4.66249e-08
2.75961e-09
-4.83659e-08
2.52524e-09
-4.98997e-08
2.25031e-09
-5.11997e-08
1.93635e-09
-5.22411e-08
1.58573e-09
-5.3002e-08
1.20164e-09
-5.34631e-08
7.88017e-10
-5.36087e-08
3.49548e-10
-5.34269e-08
-1.08423e-10
-5.29096e-08
-5.80768e-10
-5.20534e-08
-1.06064e-09
-5.08588e-08
-1.54201e-09
-4.93309e-08
-2.01858e-09
-4.74786e-08
-2.48419e-09
-4.5315e-08
-2.93294e-09
-4.28564e-08
-3.3594e-09
-4.01226e-08
-3.75869e-09
-3.71357e-08
-4.12657e-09
-3.39202e-08
-4.45958e-09
-3.05022e-08
-4.75501e-09
-2.6909e-08
-5.01098e-09
-2.31683e-08
-5.22634e-09
-1.93083e-08
-5.40067e-09
-1.53568e-08
-5.53415e-09
-1.13412e-08
-5.62743e-09
-7.28797e-09
-5.6815e-09
-3.22309e-09
-5.69748e-09
8.2833e-10
-5.67647e-09
4.8416e-09
-5.61938e-09
8.79247e-09
-5.52688e-09
1.26571e-08
-5.39939e-09
1.64115e-08
-5.23702e-09
2.00313e-08
-5.03935e-09
2.34914e-08
-4.80559e-09
2.67661e-08
-4.53469e-09
2.98285e-08
-4.22552e-09
3.2651e-08
-3.8771e-09
3.52051e-08
-3.48886e-09
3.74626e-08
-3.06094e-09
3.93953e-08
-2.59449e-09
4.09767e-08
-2.09198e-09
4.21827e-08
-1.5574e-09
4.29927e-08
-9.96507e-10
4.33913e-08
-4.16798e-10
4.33688e-08
1.72386e-10
4.2924e-08
7.5953e-10
4.20636e-08
1.33293e-09
4.08036e-08
1.87924e-09
3.91701e-08
2.38505e-09
3.71985e-08
2.83737e-09
3.49333e-08
3.2244e-09
3.24265e-08
3.53632e-09
2.97362e-08
3.76598e-09
2.69243e-08
3.90943e-09
2.40536e-08
3.96628e-09
2.11855e-08
3.9397e-09
1.83775e-08
3.83624e-09
1.56807e-08
3.66528e-09
1.31382e-08
3.43838e-09
1.07838e-08
3.16843e-09
8.64158e-09
2.86893e-09
6.72557e-09
2.55328e-09
5.04027e-09
2.23427e-09
3.58126e-09
1.92367e-09
2.33628e-09
1.63184e-09
1.28649e-09
1.3674e-09
4.08141e-10
1.13675e-09
-3.25485e-10
9.43709e-10
-9.42001e-10
7.89214e-10
-1.46778e-09
6.71319e-10
-1.92617e-09
5.85628e-10
-2.33621e-09
5.25955e-10
-2.71188e-09
4.85163e-10
-3.06206e-09
4.56058e-10
-3.39101e-09
4.32158e-10
-3.6992e-09
4.08218e-10
-3.98438e-09
3.80494e-10
-4.24266e-09
3.46763e-10
-4.46949e-09
3.06171e-10
-4.66043e-09
2.58972e-10
-4.8118e-09
2.06243e-10
-4.92099e-09
1.49594e-10
-4.98678e-09
9.09284e-11
-5.00932e-09
3.22333e-11
-4.99013e-09
-2.45978e-11
-4.93192e-09
-7.78203e-11
-4.83845e-09
-1.26008e-10
-4.71427e-09
-1.68038e-10
-4.56445e-09
-2.03138e-10
-4.39439e-09
-2.30881e-10
-4.20952e-09
-2.51169e-10
-4.01513e-09
-2.64198e-10
-3.8162e-09
-2.7041e-10
-3.61723e-09
-2.70439e-10
-3.42217e-09
-2.6506e-10
-3.23434e-09
-2.55129e-10
-3.05642e-09
-2.41537e-10
-2.89044e-09
-2.25165e-10
-2.73784e-09
-2.06847e-10
-2.5995e-09
-1.87346e-10
-2.4758e-09
-1.67334e-10
-2.36671e-09
-1.47381e-10
-2.27187e-09
-1.27954e-10
-2.19064e-09
-1.0942e-10
-2.12217e-09
-9.20497e-11
-2.06549e-09
-7.60293e-11
-2.01954e-09
-6.14715e-11
-1.98322e-09
-4.84266e-11
-1.95541e-09
-3.68954e-11
-1.93504e-09
-2.68393e-11
-1.92108e-09
-1.8191e-11
-1.91256e-09
-1.0863e-11
-1.90859e-09
-4.75558e-12
-1.90834e-09
2.53687e-13
-1.91109e-09
4.24883e-12
-1.91617e-09
7.36479e-12
-1.92302e-09
9.70188e-12
-1.93114e-09
1.13642e-11
-1.94009e-09
1.24507e-11
-1.94952e-09
1.30547e-11
-1.95913e-09
1.32641e-11
-1.9687e-09
1.31607e-11
-1.97804e-09
1.28204e-11
-1.98702e-09
1.23127e-11
-1.99557e-09
1.16989e-11
-2.00363e-09
1.10303e-11
-2.0112e-09
1.03445e-11
-2.01826e-09
9.66116e-12
-2.0248e-09
8.97665e-12
-2.0308e-09
8.2572e-12
-2.03617e-09
7.43279e-12
-2.04074e-09
6.39067e-12
-2.04421e-09
4.97041e-12
-2.04616e-09
2.95877e-12
-2.04593e-09
1.08295e-13
-2.04267e-09
-3.94687e-12
-2.03521e-09
-9.54831e-12
-2.02206e-09
-1.71875e-11
-2.00126e-09
-2.74889e-11
-1.97022e-09
-4.13766e-11
-1.92519e-09
-6.05468e-11
-1.86041e-09
-8.87683e-11
-1.76536e-09
-1.31331e-10
-2.17474e-10
-1.62505e-09
4.35038e-11
-1.4362e-10
1.14282e-10
-2.88699e-10
1.6552e-10
-3.17629e-10
1.60566e-10
-2.5322e-10
7.00881e-11
-1.14633e-10
-1.29322e-10
8.17371e-11
-4.56086e-10
3.2205e-10
-9.24484e-10
5.94926e-10
-1.54538e-09
8.9124e-10
-2.32693e-09
1.20393e-09
-3.27514e-09
1.52769e-09
-4.39434e-09
1.85874e-09
-5.68765e-09
2.19444e-09
-7.15717e-09
2.53304e-09
-8.8042e-09
2.87339e-09
-1.06293e-08
3.21465e-09
-1.26323e-08
3.55602e-09
-1.4812e-08
3.89657e-09
-1.71662e-08
4.23498e-09
-1.96913e-08
4.56941e-09
-2.2382e-08
4.89742e-09
-2.52309e-08
5.21583e-09
-2.82284e-08
5.52074e-09
-3.13623e-08
5.80752e-09
-3.46171e-08
6.07088e-09
-3.79745e-08
6.30498e-09
-4.14129e-08
6.50351e-09
-4.49074e-08
6.65996e-09
-4.84299e-08
6.76769e-09
-5.19492e-08
6.82022e-09
-5.54316e-08
6.81142e-09
-5.8841e-08
6.7357e-09
-6.21396e-08
6.58829e-09
-6.52885e-08
6.36536e-09
-6.82479e-08
6.06426e-09
-7.09789e-08
5.68365e-09
-7.34428e-08
5.22359e-09
-7.56032e-08
4.68565e-09
-7.74258e-08
4.07291e-09
-7.88795e-08
3.38999e-09
-7.99367e-08
2.64294e-09
-8.05742e-08
1.83916e-09
-8.07734e-08
9.87235e-10
-8.05208e-08
9.69036e-11
-7.98076e-08
-8.21578e-10
-7.86315e-08
-1.75695e-09
-7.69943e-08
-2.69779e-09
-7.49037e-08
-3.63267e-09
-7.23719e-08
-4.55035e-09
-6.9416e-08
-5.44006e-09
-6.60572e-08
-6.29174e-09
-6.23204e-08
-7.09621e-09
-5.82337e-08
-7.84542e-09
-5.38277e-08
-8.53255e-09
-4.91352e-08
-9.15212e-09
-4.41901e-08
-9.70006e-09
-3.90274e-08
-1.01736e-08
-3.36823e-08
-1.05715e-08
-2.81896e-08
-1.08934e-08
-2.25836e-08
-1.11401e-08
-1.68978e-08
-1.13132e-08
-1.11647e-08
-1.14146e-08
-5.4155e-09
-1.14467e-08
3.19448e-10
-1.14114e-08
6.01037e-09
-1.13103e-08
1.16278e-08
-1.11443e-08
1.71427e-08
-1.09142e-08
2.25252e-08
-1.06196e-08
2.77451e-08
-1.02592e-08
3.27706e-08
-9.83103e-09
3.75682e-08
-9.33233e-09
4.21028e-08
-8.76014e-09
4.63373e-08
-8.11156e-09
5.02327e-08
-7.38427e-09
5.37488e-08
-6.57708e-09
5.68449e-08
-5.69052e-09
5.94803e-08
-4.72738e-09
6.16161e-08
-3.69327e-09
6.32167e-08
-2.59705e-09
6.42511e-08
-1.45117e-09
6.46952e-08
-2.71789e-10
6.45338e-08
9.2097e-10
6.37625e-08
2.10428e-09
6.23892e-08
3.25248e-09
6.04359e-08
4.33841e-09
5.79387e-08
5.33459e-09
5.49484e-08
6.21466e-09
5.15297e-08
6.95503e-09
4.77591e-08
7.53651e-09
4.37229e-08
7.94572e-09
3.95129e-08
8.17621e-09
3.52235e-08
8.22909e-09
3.09468e-08
8.11299e-09
2.67686e-08
7.84348e-09
2.27651e-08
7.44187e-09
1.89998e-08
6.93372e-09
1.55216e-08
6.34712e-09
1.23638e-08
5.71108e-09
9.54399e-09
5.05411e-09
7.06467e-09
4.40299e-09
4.91482e-09
3.78169e-09
3.07189e-09
3.21033e-09
1.50441e-09
2.70422e-09
1.75183e-10
2.27294e-09
-9.55437e-10
1.91983e-09
-1.9262e-09
1.64209e-09
-2.7721e-09
1.43152e-09
-3.52229e-09
1.27615e-09
-4.19899e-09
1.16186e-09
-4.81715e-09
1.07422e-09
-5.38509e-09
1.0001e-09
-5.90561e-09
9.28737e-10
-6.37746e-09
8.52344e-10
-6.79686e-09
7.66157e-10
-7.15887e-09
6.68184e-10
-7.4586e-09
5.58703e-10
-7.69205e-09
4.39691e-10
-7.8567e-09
3.1425e-10
-7.95188e-09
1.86104e-10
-7.97881e-09
5.91685e-11
-7.94063e-09
-6.27775e-11
-7.84212e-09
-1.76333e-10
-7.68948e-09
-2.78654e-10
-7.48996e-09
-3.67555e-10
-7.25155e-09
-4.4155e-10
-6.98257e-09
-4.99857e-10
-6.69138e-09
-5.42355e-10
-6.38607e-09
-5.69515e-10
-6.07418e-09
-5.82302e-10
-5.76254e-09
-5.82071e-10
-5.45715e-09
-5.70452e-10
-5.16304e-09
-5.49244e-10
-4.88426e-09
-5.2031e-10
-4.62394e-09
-4.8549e-10
-4.38426e-09
-4.46529e-10
-4.16658e-09
-4.05026e-10
-3.97152e-09
-3.6239e-10
-3.79908e-09
-3.19825e-10
-3.64871e-09
-2.78319e-10
-3.51948e-09
-2.38653e-10
-3.41012e-09
-2.01407e-10
-3.31916e-09
-1.66987e-10
-3.24499e-09
-1.35642e-10
-3.18593e-09
-1.0749e-10
-3.14028e-09
-8.25424e-11
-3.10639e-09
-6.07284e-11
-3.08267e-09
-4.19131e-11
-3.06762e-09
-2.59172e-11
-3.05984e-09
-1.25312e-11
-3.05806e-09
-1.52625e-12
-3.06114e-09
7.32628e-12
-3.06804e-09
1.42662e-11
-3.07786e-09
1.95213e-11
-3.08981e-09
2.33122e-11
-3.10321e-09
2.58493e-11
-3.11748e-09
2.73319e-11
-3.13217e-09
2.7947e-11
-3.14688e-09
2.78693e-11
-3.16132e-09
2.72605e-11
-3.17527e-09
2.62675e-11
-3.18859e-09
2.50196e-11
-3.20118e-09
2.36236e-11
-3.213e-09
2.21565e-11
-3.22399e-09
2.06565e-11
-3.23413e-09
1.9111e-11
-3.24331e-09
1.74435e-11
-3.25138e-09
1.55004e-11
-3.25803e-09
1.30381e-11
-3.26277e-09
9.71316e-12
-3.26489e-09
5.07519e-12
-3.26335e-09
-1.43213e-12
-3.25679e-09
-1.04981e-11
-3.24343e-09
-2.29141e-11
-3.22096e-09
-3.9656e-11
-3.18649e-09
-6.19637e-11
-3.13627e-09
-9.15902e-11
-3.06538e-09
-1.31436e-10
-2.96726e-09
-1.8689e-10
-2.8313e-09
-2.67292e-10
-3.89858e-10
-2.65892e-09
-1.63794e-12
-1.41983e-10
-5.13106e-11
-2.39027e-10
-1.86081e-10
-1.82858e-10
-4.35738e-10
-3.56231e-12
-8.23995e-10
2.73624e-10
-1.37014e-09
6.27879e-10
-2.08956e-09
1.04147e-09
-2.99454e-09
1.4999e-09
-4.09485e-09
1.99156e-09
-5.39825e-09
2.50732e-09
-6.9108e-09
3.04025e-09
-8.6372e-09
3.58514e-09
-1.05809e-08
4.13813e-09
-1.27442e-08
4.69631e-09
-1.51281e-08
5.25731e-09
-1.77324e-08
5.81898e-09
-2.05554e-08
6.379e-09
-2.35935e-08
6.93465e-09
-2.6841e-08
7.48251e-09
-3.02899e-08
8.01833e-09
-3.39293e-08
8.53684e-09
-3.77452e-08
9.03174e-09
-4.17202e-08
9.4957e-09
-4.58331e-08
9.92044e-09
-5.00591e-08
1.02969e-08
-5.43694e-08
1.06153e-08
-5.87315e-08
1.08656e-08
-6.31095e-08
1.10379e-08
-6.74641e-08
1.11223e-08
-7.17534e-08
1.11096e-08
-7.59336e-08
1.09916e-08
-7.99592e-08
1.07613e-08
-8.37842e-08
1.04133e-08
-8.73628e-08
9.94395e-09
-9.06502e-08
9.35159e-09
-9.36032e-08
8.63672e-09
-9.61816e-08
7.802e-09
-9.83483e-08
6.85236e-09
-1.0007e-07
5.79485e-09
-1.01319e-07
4.63863e-09
-1.02071e-07
3.39473e-09
-1.02307e-07
2.07586e-09
-1.02016e-07
6.962e-10
-1.01191e-07
-7.28854e-10
-9.98289e-08
-2.18327e-09
-9.79355e-08
-3.65032e-09
-9.552e-08
-5.11331e-09
-9.2597e-08
-6.55574e-09
-8.91856e-08
-7.96171e-09
-8.53095e-08
-9.31618e-09
-8.09959e-08
-1.06053e-08
-7.62755e-08
-1.18167e-08
-7.11814e-08
-1.29395e-08
-6.57489e-08
-1.3965e-08
-6.00148e-08
-1.48862e-08
-5.40166e-08
-1.56982e-08
-4.77921e-08
-1.63981e-08
-4.1379e-08
-1.69846e-08
-3.4814e-08
-1.74584e-08
-2.81329e-08
-1.78212e-08
-2.13702e-08
-1.80759e-08
-1.4559e-08
-1.82259e-08
-7.73085e-09
-1.82748e-08
-9.16258e-10
-1.8226e-08
5.85535e-09
-1.80819e-08
1.25549e-08
-1.78439e-08
1.9153e-08
-1.75123e-08
2.56197e-08
-1.70863e-08
3.19238e-08
-1.65634e-08
3.80325e-08
-1.59397e-08
4.39102e-08
-1.52101e-08
4.9519e-08
-1.43689e-08
5.48177e-08
-1.34103e-08
5.97624e-08
-1.23289e-08
6.43063e-08
-1.1121e-08
6.84005e-08
-9.78473e-09
7.19948e-08
-8.32173e-09
7.50391e-08
-6.73751e-09
7.74844e-08
-5.0424e-09
7.92854e-08
-3.25221e-09
8.04023e-08
-1.3886e-09
8.08027e-08
5.20513e-10
8.04654e-08
2.44162e-09
7.93819e-08
4.33593e-09
7.75594e-08
6.16088e-09
7.50224e-08
7.87167e-09
7.18137e-08
9.42336e-09
6.79953e-08
1.07734e-08
6.36473e-08
1.18845e-08
5.88658e-08
1.27272e-08
5.37599e-08
1.32821e-08
4.84467e-08
1.35423e-08
4.30462e-08
1.35135e-08
3.76758e-08
1.32139e-08
3.24444e-08
1.26733e-08
2.74473e-08
1.19308e-08
2.27629e-08
1.10315e-08
1.84495e-08
1.00245e-08
1.45443e-08
8.95929e-09
1.10638e-08
7.88352e-09
8.00482e-09
6.84063e-09
5.34748e-09
5.86767e-09