/*--------------------------------*- C++ -*----------------------------------*\
  =========                 |
  \\      /  F ield         | OpenFOAM: The Open Source CFD Toolbox
   \\    /   O peration     | Website:  https://openfoam.org
    \\  /    A nd           | Version:  8
     \\/     M anipulation  |
\*---------------------------------------------------------------------------*/
FoamFile
{
    version     2.0;
    format      ascii;
    class       volVectorField;
    location    "0.96";
    object      U;
}
// * * * * * * * * * * * * * * * * * * * * * * * * * * * * * * * * * * * * * //

dimensions      [0 1 -1 0 0 0 0];

internalField   nonuniform List<vector> 
12225
(
(-6.4766e-06 8.78588e-07 0)
(-2.95488e-06 -4.96562e-07 0)
(2.52673e-05 -1.25333e-06 0)
(7.07104e-05 -1.91197e-06 0)
(0.000129982 -2.46733e-06 0)
(0.000200247 -2.98877e-06 0)
(0.000279849 -3.49975e-06 0)
(0.000367611 -4.02454e-06 0)
(0.000462741 -4.58696e-06 0)
(0.000564767 -5.22349e-06 0)
(0.000673581 -5.99466e-06 0)
(0.000789496 -7.00296e-06 0)
(0.000913239 -8.42892e-06 0)
(0.00104533 -1.0543e-05 0)
(0.00118333 -1.29762e-05 0)
(0.00131629 -1.10668e-05 0)
(0.0013654 -1.03527e-05 0)
(-5.94176e-05 0.000954681 0)
(-1.3252e-05 2.24181e-06 0)
(5.07182e-06 -7.68348e-06 0)
(9.0432e-05 -1.74224e-05 0)
(0.000224991 -2.57546e-05 0)
(0.000399268 -3.30749e-05 0)
(0.00060522 -3.98177e-05 0)
(0.000837702 -4.62643e-05 0)
(0.00109279 -5.25969e-05 0)
(0.00136742 -5.89627e-05 0)
(0.00165902 -6.55245e-05 0)
(0.00196534 -7.24757e-05 0)
(0.00228385 -7.99752e-05 0)
(0.00261023 -8.78319e-05 0)
(0.00293348 -9.4166e-05 0)
(0.00322204 -8.92177e-05 0)
(0.00338084 -2.58103e-05 0)
(0.00314167 0.000293481 0)
(0.000393865 0.00240389 0)
(-1.53515e-05 2.6083e-06 0)
(2.59086e-05 -2.44887e-05 0)
(0.000171177 -5.25401e-05 0)
(0.000395533 -7.68448e-05 0)
(0.000684099 -9.83526e-05 0)
(0.00102396 -0.000118082 0)
(0.00140622 -0.000136741 0)
(0.0018237 -0.000154728 0)
(0.0022702 -0.000172271 0)
(0.00273975 -0.000189487 0)
(0.00322575 -0.000206254 0)
(0.00371922 -0.000221695 0)
(0.00420461 -0.000232513 0)
(0.004649 -0.000227793 0)
(0.00497595 -0.000171108 0)
(0.00499292 6.33616e-05 0)
(0.00429653 0.000910655 0)
(0.00105151 0.00412484 0)
(-1.39185e-05 -8.76373e-09 0)
(5.78354e-05 -5.3889e-05 0)
(0.000265708 -0.000110552 0)
(0.000579813 -0.000160196 0)
(0.000980606 -0.000204322 0)
(0.00145067 -0.000244658 0)
(0.00197718 -0.00028243 0)
(0.00254915 -0.00031821 0)
(0.00315636 -0.000352104 0)
(0.003788 -0.000383721 0)
(0.00443097 -0.000411685 0)
(0.00506652 -0.000432115 0)
(0.00566316 -0.000434469 0)
(0.00616069 -0.000390238 0)
(0.00643725 -0.000220404 0)
(0.00623455 0.000298454 0)
(0.00512621 0.00179728 0)
(0.0018451 0.0059502 0)
(-9.9333e-06 -7.92584e-06 0)
(9.88291e-05 -9.87308e-05 0)
(0.000371473 -0.00019434 0)
(0.000774257 -0.000278941 0)
(0.00128359 -0.000354381 0)
(0.00187798 -0.000423087 0)
(0.00254048 -0.000486753 0)
(0.00325585 -0.000545922 0)
(0.00400895 -0.000600145 0)
(0.00478281 -0.000647715 0)
(0.00555599 -0.000684519 0)
(0.00629761 -0.000700968 0)
(0.00695804 -0.000674456 0)
(0.0074506 -0.000551136 0)
(0.00762007 -0.000200981 0)
(0.00718924 0.000688591 0)
(0.0057957 0.00284738 0)
(0.0027231 0.00771178 0)
(-4.21463e-06 -2.33277e-05 0)
(0.000146554 -0.00016211 0)
(0.000485099 -0.000307092 0)
(0.000974094 -0.000436417 0)
(0.00158636 -0.000551995 0)
(0.00229671 -0.000656819 0)
(0.00308403 -0.000752835 0)
(0.00392839 -0.000840174 0)
(0.004809 -0.000917158 0)
(0.00570173 -0.000979628 0)
(0.00657558 -0.00101886 0)
(0.00738668 -0.00101656 0)
(0.0080681 -0.000933715 0)
(0.00851289 -0.000686527 0)
(0.00855137 -9.53753e-05 0)
(0.00792912 0.00121422 0)
(0.00639213 0.00397759 0)
(0.00364389 0.00934368 0)
(2.53571e-06 -4.82256e-05 0)
(0.000198376 -0.000247195 0)
(0.000602383 -0.000452084 0)
(0.00117332 -0.000635903 0)
(0.00188063 -0.00080038 0)
(0.00269586 -0.000948826 0)
(0.00359373 -0.00108307 0)
(0.00454936 -0.00120225 0)
(0.00553587 -0.00130257 0)
(0.00652146 -0.00137605 0)
(0.00746529 -0.00140735 0)
(0.00831137 -0.00136676 0)
(0.00897915 -0.00119606 0)
(0.00935116 -0.000781262 0)
(0.00926306 9.69391e-05 0)
(0.00851107 0.00184069 0)
(0.0069576 0.00512522 0)
(0.00458046 0.0108213 0)
(9.70746e-06 -8.4396e-05 0)
(0.000251403 -0.000356924 0)
(0.000718321 -0.000632247 0)
(0.00136467 -0.000880069 0)
(0.00215658 -0.00110182 0)
(0.00306265 -0.00130082 0)
(0.00405363 -0.00147824 0)
(0.00509969 -0.0016315 0)
(0.00616781 -0.00175364 0)
(0.00721861 -0.00183141 0)
(0.00820235 -0.00184102 0)
(0.00905335 -0.00173952 0)
(0.00968327 -0.00144895 0)
(0.00997507 -0.000829274 0)
(0.00978593 0.000363302 0)
(0.00897516 0.00252628 0)
(0.00750646 0.00623843 0)
(0.00551206 0.012129 0)
(1.67691e-05 -0.000133245 0)
(0.000302545 -0.000493695 0)
(0.000827196 -0.000849775 0)
(0.00153973 -0.00117053 0)
(0.00240285 -0.0014572 0)
(0.00338265 -0.00171273 0)
(0.00444621 -0.00193703 0)
(0.00555907 -0.00212494 0)
(0.0066825 -0.00226523 0)
(0.0077705 -0.00233807 0)
(0.0087663 -0.00230995 0)
(0.00959841 -0.00212413 0)
(0.0101774 -0.00168484 0)
(0.0103966 -0.000833513 0)
(0.010145 0.000681162 0)
(0.00934464 0.0032268 0)
(0.0080349 0.00727257 0)
(0.00641823 0.0132524 0)
(2.32485e-05 -0.000195632 0)
(0.000348587 -0.000658987 0)
(0.000922716 -0.00110569 0)
(0.00168905 -0.00150739 0)
(0.00260684 -0.00186549 0)
(0.00364008 -0.00218225 0)
(0.00475276 -0.00245562 0)
(0.00590646 -0.002677 0)
(0.00705777 -0.00282986 0)
(0.00815572 -0.00288685 0)
(0.00913932 -0.00280422 0)
(0.00993581 -0.00251244 0)
(0.0104612 -0.00190199 0)
(0.0106264 -0.000805195 0)
(0.0103565 0.00102116 0)
(0.00962721 0.00389841 0)
(0.00852685 0.00818878 0)
(0.00727573 0.0141765 0)
(2.87237e-05 -0.000271763 0)
(0.000386282 -0.000852878 0)
(0.000998209 -0.00139927 0)
(0.00180247 -0.00188866 0)
(0.00275501 -0.00232321 0)
(0.00381825 -0.00270431 0)
(0.00495393 -0.00302728 0)
(0.00612076 -0.0032793 0)
(0.00727219 -0.0034378 0)
(0.00835456 -0.00346744 0)
(0.00930606 -0.00331475 0)
(0.0100572 -0.00289972 0)
(0.0105346 -0.00210461 0)
(0.0106711 -0.000762266 0)
(0.0104261 0.00135006 0)
(0.00981675 0.00449948 0)
(0.00895709 0.008953 0)
(0.00805667 0.0148847 0)
(3.25783e-05 -0.000353755 0)
(0.000410392 -0.00105518 0)
(0.00104292 -0.00170013 0)
(0.00186404 -0.00227454 0)
(0.00282705 -0.00278212 0)
(0.0038936 -0.00322339 0)
(0.00502434 -0.00359085 0)
(0.00617674 -0.00386725 0)
(0.00730319 -0.00402415 0)
(0.00835004 -0.00401912 0)
(0.00925784 -0.00379102 0)
(0.00996374 -0.0032533 0)
(0.0104074 -0.0022862 0)
(0.0105425 -0.000730745 0)
(0.0103554 0.00160971 0)
(0.00988884 0.00495167 0)
(0.00926491 0.00948882 0)
(0.0086715 0.0153227 0)
(3.55297e-05 -0.000444081 0)
(0.000423602 -0.00127388 0)
(0.00106196 -0.002021 0)
(0.00188209 -0.00268204 0)
(0.00283506 -0.00326295 0)
(0.00388246 -0.00376349 0)
(0.00498498 -0.00417311 0)
(0.00610019 -0.00446997 0)
(0.0071812 -0.00461985 0)
(0.00817653 -0.0045739 0)
(0.0090316 -0.00426505 0)
(0.00969255 -0.00360328 0)
(0.0101133 -0.00247128 0)
(0.0102671 -0.00072333 0)
(0.0101616 0.00180791 0)
(0.0098557 0.00529112 0)
(0.00946934 0.00985958 0)
(0.00916572 0.015562 0)
(3.7448e-05 -0.000555816 0)
(0.000422261 -0.00154186 0)
(0.00104515 -0.00240878 0)
(0.00183768 -0.00316932 0)
(0.00274962 -0.00383305 0)
(0.00374368 -0.00439897 0)
(0.0047822 -0.00485303 0)
(0.00582486 -0.00516821 0)
(0.00682798 -0.00530419 0)
(0.0077453 -0.00520621 0)
(0.0085305 -0.00480301 0)
(0.00914193 -0.0040047 0)
(0.00954991 -0.00270191 0)
(0.00974659 -0.000768747 0)
(0.00975706 0.00192745 0)
(0.00964823 0.00550692 0)
(0.00952979 0.0100494 0)
(0.00953715 0.0155635 0)
(3.71028e-05 -0.000687701 0)
(0.000396478 -0.00185627 0)
(0.000969778 -0.00285808 0)
(0.00169282 -0.00372781 0)
(0.00251681 -0.00448066 0)
(0.00340754 -0.00511517 0)
(0.00433149 -0.00561369 0)
(0.00525339 -0.00594398 0)
(0.00613616 -0.00606017 0)
(0.00694236 -0.00590313 0)
(0.00763736 -0.0054005 0)
(0.00819417 -0.00446718 0)
(0.00859982 -0.00300752 0)
(0.0088626 -0.000920812 0)
(0.00901857 0.00188854 0)
(0.00913449 0.00549563 0)
(0.00930391 0.00993637 0)
(0.00963387 0.0151911 0)
(3.29009e-05 -0.000831575 0)
(0.00033388 -0.00219757 0)
(0.00080761 -0.00334065 0)
(0.00140034 -0.00432147 0)
(0.00206989 -0.0051631 0)
(0.00278836 -0.00586445 0)
(0.00352977 -0.00640489 0)
(0.00426763 -0.00674788 0)
(0.00497532 -0.0068437 0)
(0.00562788 -0.00663164 0)
(0.00620505 -0.00604224 0)
(0.00669537 -0.00500002 0)
(0.00710079 -0.00342765 0)
(0.00744095 -0.00125213 0)
(0.00775577 0.00158659 0)
(0.00810487 0.00512529 0)
(0.00856245 0.00936717 0)
(0.00920886 0.0142749 0)
(2.31478e-05 -0.000966155 0)
(0.000221504 -0.00251546 0)
(0.000529341 -0.00378629 0)
(0.000911342 -0.00486467 0)
(0.00133968 -0.00578302 0)
(0.00179731 -0.00654189 0)
(0.00226975 -0.00711928 0)
(0.00274322 -0.00747655 0)
(0.00320521 -0.00756303 0)
(0.00364603 -0.0073201 0)
(0.00406108 -0.00668516 0)
(0.00445355 -0.00559592 0)
(0.00483692 -0.00399519 0)
(0.00523677 -0.00183641 0)
(0.00569076 0.000910406 0)
(0.00624679 0.00425301 0)
(0.00695911 0.00817296 0)
(0.00788457 0.0126237 0)
(6.46202e-06 -0.00104888 0)
(5.09239e-05 -0.00271028 0)
(0.000116968 -0.00405718 0)
(0.000196209 -0.00519235 0)
(0.000283917 -0.00615593 0)
(0.000378911 -0.00695123 0)
(0.000481683 -0.00755735 0)
(0.000594189 -0.00793687 0)
(0.000720368 -0.0080419 0)
(0.000867017 -0.00781949 0)
(0.00104489 -0.00721666 0)
(0.00126977 -0.00618518 0)
(0.00156321 -0.00468614 0)
(0.00195255 -0.00269407 0)
(0.00246986 -0.000200421 0)
(0.00314978 0.002784 0)
(0.00402822 0.00622894 0)
(0.0051422 0.0100859 0)
(-1.7837e-05 -0.00100929 0)
(-0.000169336 -0.00261725 0)
(-0.000407072 -0.00392488 0)
(-0.000706581 -0.00503038 0)
(-0.00104394 -0.00597418 0)
(-0.00140176 -0.00676207 0)
(-0.00176331 -0.00737712 0)
(-0.00211033 -0.0077872 0)
(-0.00242248 -0.00795133 0)
(-0.00267732 -0.00782526 0)
(-0.00285034 -0.00736661 0)
(-0.00291529 -0.00653934 0)
(-0.00284466 -0.00531758 0)
(-0.00261071 -0.00368843 0)
(-0.00218667 -0.00165367 0)
(-0.00154807 0.000769714 0)
(-0.000673642 0.00354968 0)
(0.000457611 0.00664152 0)
(-3.42535e-05 -0.000830009 0)
(-0.000332852 -0.00218931 0)
(-0.000803048 -0.00331911 0)
(-0.00139713 -0.00428812 0)
(-0.002072 -0.00512646 0)
(-0.0027986 -0.00583982 0)
(-0.00354995 -0.00641608 0)
(-0.00429743 -0.00683049 0)
(-0.0050103 -0.00705065 0)
(-0.0056561 -0.0070413 0)
(-0.00620138 -0.0067687 0)
(-0.00661271 -0.00620451 0)
(-0.00685793 -0.00532892 0)
(-0.00690744 -0.00413279 0)
(-0.00673558 -0.0026188 0)
(-0.00632164 -0.000801472 0)
(-0.00564939 0.00129354 0)
(-0.00470573 0.00363077 0)
(-4.06196e-05 -0.000629667 0)
(-0.000407262 -0.00171344 0)
(-0.000991113 -0.00264282 0)
(-0.00173524 -0.0034521 0)
(-0.00258955 -0.00415999 0)
(-0.00352064 -0.00477149 0)
(-0.00449729 -0.00527877 0)
(-0.00548662 -0.00566381 0)
(-0.00645362 -0.00590192 0)
(-0.00736164 -0.00596549 0)
(-0.0081733 -0.00582763 0)
(-0.00885183 -0.00546537 0)
(-0.00936248 -0.00486226 0)
(-0.00967407 -0.00401017 0)
(-0.00976036 -0.00291018 0)
(-0.0096011 -0.0015726 0)
(-0.00918154 -1.63494e-05 0)
(-0.0084908 0.00173204 0)
(-3.95065e-05 -0.000436729 0)
(-0.000416818 -0.00125118 0)
(-0.00103029 -0.00197806 0)
(-0.001823 -0.00261998 0)
(-0.00274517 -0.00318601 0)
(-0.00376296 -0.00368074 0)
(-0.00484432 -0.00410014 0)
(-0.00595575 -0.00443217 0)
(-0.00706182 -0.00465906 0)
(-0.00812541 -0.00476009 0)
(-0.00910859 -0.00471442 0)
(-0.00997392 -0.00450372 0)
(-0.0106859 -0.0041142 0)
(-0.0112127 -0.00353818 0)
(-0.0115271 -0.00277483 0)
(-0.0116083 -0.00183027 0)
(-0.0114411 -0.000717209 0)
(-0.011015 0.000545522 0)
(-3.29335e-05 -0.000275912 0)
(-0.000378903 -0.000857479 0)
(-0.000960592 -0.00140079 0)
(-0.0017266 -0.00188554 0)
(-0.00263135 -0.00231472 0)
(-0.00364248 -0.00269284 0)
(-0.00472919 -0.00301883 0)
(-0.00585981 -0.00328543 0)
(-0.00700108 -0.00348056 0)
(-0.00811813 -0.00358936 0)
(-0.00917507 -0.00359635 0)
(-0.0101361 -0.00348738 0)
(-0.0109669 -0.0032513 0)
(-0.0116361 -0.00288115 0)
(-0.0121166 -0.00237482 0)
(-0.0123868 -0.00173526 0)
(-0.0124306 -0.000970244 0)
(-0.0122374 -9.2243e-05 0)
(-2.30351e-05 -0.000155808 0)
(-0.00031212 -0.000551441 0)
(-0.000823786 -0.000939132 0)
(-0.00151423 -0.00128661 0)
(-0.00234332 -0.00159421 0)
(-0.003281 -0.00186647 0)
(-0.004299 -0.00210429 0)
(-0.00536899 -0.00230379 0)
(-0.0064616 -0.00245726 0)
(-0.00754597 -0.00255456 0)
(-0.00859005 -0.00258473 0)
(-0.00956147 -0.00253741 0)
(-0.0104287 -0.00240404 0)
(-0.0111623 -0.00217879 0)
(-0.0117363 -0.00185912 0)
(-0.0121294 -0.00144593 0)
(-0.0123249 -0.000943513 0)
(-0.0123121 -0.000359543 0)
(-1.18008e-05 -7.50767e-05 0)
(-0.000232955 -0.000330619 0)
(-0.00065573 -0.000592613 0)
(-0.00124353 -0.000826923 0)
(-0.00196152 -0.00103354 0)
(-0.00278239 -0.00121682 0)
(-0.00368129 -0.00137856 0)
(-0.00463417 -0.00151706 0)
(-0.00561643 -0.0016277 0)
(-0.00660225 -0.00170397 0)
(-0.0075645 -0.00173856 0)
(-0.00847542 -0.00172432 0)
(-0.00930746 -0.00165514 0)
(-0.0100345 -0.00152656 0)
(-0.0106328 -0.0013362 0)
(-0.0110822 -0.00108393 0)
(-0.0113668 -0.000771792 0)
(-0.0114758 -0.000404101 0)
(-9.91403e-07 -2.71814e-05 0)
(-0.000154532 -0.000181939 0)
(-0.000483655 -0.000346654 0)
(-0.000957414 -0.000492637 0)
(-0.00154584 -0.000620497 0)
(-0.00222493 -0.000733962 0)
(-0.0029739 -0.000834948 0)
(-0.00377343 -0.000922926 0)
(-0.00460409 -0.000995347 0)
(-0.00544543 -0.00104832 0)
(-0.00627578 -0.00107733 0)
(-0.00707259 -0.00107785 0)
(-0.00781312 -0.00104586 0)
(-0.00847537 -0.00097829 0)
(-0.00903897 -0.000873275 0)
(-0.00948608 -0.000730298 0)
(-0.00980205 -0.000550178 0)
(-0.00997701 -0.000335021 0)
(7.81649e-06 -3.60545e-06 0)
(-8.64332e-05 -8.89205e-05 0)
(-0.000326071 -0.000181926 0)
(-0.000684456 -0.000263095 0)
(-0.00113646 -0.00033356 0)
(-0.00166215 -0.000396059 0)
(-0.00224527 -0.000452102 0)
(-0.00287133 -0.000501666 0)
(-0.00352601 -0.000543489 0)
(-0.00419421 -0.000575488 0)
(-0.00485972 -0.000595164 0)
(-0.00550543 -0.000599953 0)
(-0.00611378 -0.000587525 0)
(-0.00666747 -0.000556019 0)
(-0.00715018 -0.000504206 0)
(-0.00754727 -0.000431579 0)
(-0.0078463 -0.000338359 0)
(-0.00803888 -0.000225386 0)
(1.31305e-05 4.23644e-06 0)
(-3.49941e-05 -3.58863e-05 0)
(-0.000193953 -7.97687e-05 0)
(-0.000441292 -0.000117266 0)
(-0.000757395 -0.000149476 0)
(-0.00112723 -0.000178017 0)
(-0.0015393 -0.000203792 0)
(-0.00198379 -0.000226904 0)
(-0.00245115 -0.000246833 0)
(-0.00293127 -0.000262646 0)
(-0.00341317 -0.00027319 0)
(-0.00388504 -0.000277261 0)
(-0.00433457 -0.000273738 0)
(-0.00474945 -0.000261698 0)
(-0.00511783 -0.000240492 0)
(-0.00542887 -0.00020979 0)
(-0.0056731 -0.000169591 0)
(-0.00584408 -0.000120103 0)
(1.34256e-05 4.0684e-06 0)
(-3.81957e-06 -9.86125e-06 0)
(-9.24018e-05 -2.44876e-05 0)
(-0.000235701 -3.66265e-05 0)
(-0.000420812 -4.6908e-05 0)
(-0.000638331 -5.60045e-05 0)
(-0.000881514 -6.42855e-05 0)
(-0.00114485 -7.18232e-05 0)
(-0.00142305 -7.84682e-05 0)
(-0.00171047 -8.3927e-05 0)
(-0.0020009 -8.78263e-05 0)
(-0.00228754 -8.97682e-05 0)
(-0.0025632 -8.93757e-05 0)
(-0.00282056 -8.63289e-05 0)
(-0.00305245 -8.0391e-05 0)
(-0.00325222 -7.14237e-05 0)
(-0.00341384 -5.93819e-05 0)
(-0.00353324 -4.42372e-05 0)
(7.23213e-06 1.47329e-06 0)
(5.71463e-06 -4.94808e-07 0)
(-2.2254e-05 -1.71264e-06 0)
(-6.93958e-05 -2.65932e-06 0)
(-0.000130868 -3.42834e-06 0)
(-0.000203346 -4.1067e-06 0)
(-0.000284614 -4.73624e-06 0)
(-0.000372946 -5.32874e-06 0)
(-0.000466711 -5.87545e-06 0)
(-0.000564153 -6.35462e-06 0)
(-0.000663294 -6.73689e-06 0)
(-0.000761929 -6.99013e-06 0)
(-0.000857679 -7.08259e-06 0)
(-0.000948077 -6.98629e-06 0)
(-0.00103068 -6.67913e-06 0)
(-0.00110316 -6.14964e-06 0)
(-0.00116334 -5.36894e-06 0)
(-0.00120972 -4.31949e-06 0)
(1.03586e-05 -2.41794e-05 5.97378e-24)
(6.91366e-05 -5.42859e-05 -7.88685e-24)
(0.000161302 -7.03491e-05 0)
(0.000270391 -7.56844e-05 0)
(0.000377045 -7.38458e-05 0)
(0.000467822 -6.7275e-05 6.62623e-24)
(0.000533631 -5.77807e-05 0)
(0.000568237 -4.67247e-05 0)
(0.000567499 -3.5071e-05 0)
(0.000528899 -2.34336e-05 0)
(0.000451096 -1.21755e-05 -1.03969e-24)
(0.000333496 -1.46729e-06 0)
(0.000175964 8.66023e-06 0)
(-2.14233e-05 1.82711e-05 0)
(-0.000258545 2.74895e-05 0)
(-0.00053535 3.64737e-05 7.46145e-24)
(-0.000851918 4.53935e-05 0)
(-0.00120847 5.44133e-05 0)
(-0.00160536 6.36785e-05 0)
(-0.00204301 7.33068e-05 0)
(-0.00252182 8.3381e-05 0)
(-0.00304209 9.39446e-05 0)
(-0.0036039 0.000104999 0)
(-0.004207 0.000116503 2.41572e-23)
(-0.00485066 0.000128371 -2.6245e-23)
(-0.00553358 0.000140477 2.82589e-23)
(-0.00625378 0.000152653 3.0167e-23)
(-0.00700847 0.000164693 0)
(-0.00779401 0.000176359 0)
(-0.00860581 0.000187379 -3.48883e-23)
(-0.0094383 0.000197457 -3.59903e-23)
(-0.0102849 0.000206278 0)
(-0.0111382 0.000213513 0)
(-0.0119895 0.000218833 -3.72555e-23)
(-0.0128296 0.000221914 0)
(-0.0136484 0.000222453 0)
(-0.0144352 0.000220175 3.45349e-23)
(-0.0151787 0.000214851 0)
(-0.0158676 0.000206308 3.00143e-23)
(-0.0164905 0.000194439 5.37406e-23)
(-0.0170362 0.000179216 0)
(-0.0174939 0.000160695 0)
(-0.0178535 0.00013902 0)
(-0.0181062 0.000114426 0)
(-0.018244 8.72555e-05 0)
(-0.0182604 5.79439e-05 -8.17331e-24)
(-0.0181504 2.68424e-05 -2.19077e-23)
(-0.0179111 -5.49437e-06 -3.62992e-23)
(-0.0175411 -3.8455e-05 0)
(-0.0170409 -7.14401e-05 6.63721e-23)
(-0.0164131 -0.000103859 0)
(-0.0156618 -0.000135142 -9.68865e-23)
(-0.014793 -0.000164756 -1.11796e-22)
(-0.013814 -0.000192229 0)
(-0.0127335 -0.000217156 0)
(-0.0115615 -0.000239215 0)
(-0.0103085 -0.000258172 -1.64285e-22)
(-0.00898594 -0.000273879 0)
(-0.00760538 -0.000286269 0)
(-0.00617864 -0.000295351 0)
(-0.00471747 -0.000301193 0)
(-0.00323344 -0.000303904 0)
(-0.00173787 -0.000303599 0)
(-0.000241798 -0.000300336 0)
(0.00124416 -0.00029416 0)
(0.00270975 -0.000285263 1.95735e-22)
(0.00414468 -0.000273912 0)
(0.00553877 -0.000260269 0)
(0.00688191 -0.000244424 -1.71777e-22)
(0.00816387 -0.000226437 -1.60645e-22)
(0.00937424 -0.000206356 0)
(0.0105024 -0.00018424 1.34475e-22)
(0.0115375 -0.000160174 -1.19774e-22)
(0.0124686 -0.000134291 0)
(0.013285 -0.000106789 8.81287e-23)
(0.0139762 -7.79494e-05 0)
(0.0145325 -4.81455e-05 0)
(0.0149455 -1.78472e-05 -3.84645e-23)
(0.0152084 1.23718e-05 0)
(0.0153165 4.18682e-05 6.75221e-24)
(0.0152678 7.00247e-05 0)
(0.0150633 9.60912e-05 2.15869e-23)
(0.0147077 0.000119405 3.39663e-23)
(0.0142087 0.000139364 4.49343e-23)
(0.013578 0.000155468 1.0875e-22)
(0.0128305 0.000167362 -1.24437e-22)
(0.0119842 0.000174861 0)
(0.0110594 0.00017797 0)
(0.0100782 0.000176882 0)
(0.00906348 0.000171965 -1.55689e-22)
(0.00803782 0.000163733 -1.56501e-22)
(0.00702286 0.0001528 1.551e-22)
(0.00603826 0.00013984 0)
(0.0051011 0.000125534 -1.47127e-22)
(0.00422532 0.000110523 -1.41301e-22)
(0.00342152 9.53803e-05 -1.34719e-22)
(0.00269683 8.05902e-05 0)
(0.00205503 6.65457e-05 0)
(0.00149674 5.35596e-05 0)
(0.00101968 4.18806e-05 -1.06568e-22)
(0.000619004 3.17067e-05 0)
(0.000287681 2.31868e-05 0)
(1.69316e-05 1.64114e-05 8.8996e-23)
(-0.000203177 1.13941e-05 0)
(-0.000383043 8.05223e-06 0)
(-0.000532781 6.20151e-06 7.70246e-23)
(-0.000661515 5.57181e-06 0)
(-0.000776818 5.83496e-06 0)
(-0.00088435 6.64326e-06 -7.01391e-23)
(-0.000987741 7.67016e-06 -6.85918e-23)
(-0.00108871 8.64193e-06 0)
(-0.00118739 9.35603e-06 6.6054e-23)
(-0.00128268 9.68582e-06 0)
(-0.00137274 9.57441e-06 -6.37486e-23)
(-0.00145534 9.02205e-06 0)
(-0.00152826 8.07101e-06 -6.12727e-23)
(-0.00158948 6.79101e-06 -5.99108e-23)
(-0.00163742 5.26676e-06 0)
(-0.001671 3.58833e-06 0)
(-0.00168971 1.84707e-06 0)
(-0.00169359 1.33e-07 0)
(-0.00168319 -1.50857e-06 0)
(-0.00165955 -3.0032e-06 0)
(-0.00162403 -4.30515e-06 0)
(-0.0015783 -5.38552e-06 -4.71603e-23)
(-0.00152421 -6.22833e-06 4.56505e-23)
(-0.00146367 -6.83009e-06 0)
(-0.00139864 -7.19838e-06 0)
(-0.00133095 -7.34987e-06 0)
(-0.00126234 -7.30804e-06 0)
(-0.00119434 -7.10092e-06 7.91234e-23)
(-0.00112828 -6.75891e-06 0)
(-0.00106526 -6.31285e-06 -7.57207e-23)
(-0.00100612 -5.79246e-06 7.42981e-23)
(-0.000951503 -5.22507e-06 0)
(-0.000901816 -4.63484e-06 0)
(-0.000857284 -4.04225e-06 0)
(-0.000817967 -3.46395e-06 -7.00033e-23)
(-0.000783785 -2.91279e-06 -6.91716e-23)
(-0.000754549 -2.39813e-06 0)
(-0.000729987 -1.92623e-06 -6.76598e-23)
(-0.000709767 -1.50063e-06 -6.69465e-23)
(-0.000693517 -1.1227e-06 6.6243e-23)
(-0.000680846 -7.92062e-07 0)
(-0.000671358 -5.07008e-07 0)
(-0.000664662 -2.64885e-07 6.40861e-23)
(-0.000660381 -6.23132e-08 0)
(-0.000658158 1.04491e-07 0)
(-0.000657661 2.36493e-07 0)
(-0.000658597 3.30585e-07 0)
(-0.000660688 4.12945e-07 -5.99669e-23)
(-0.000663682 4.72626e-07 -5.90396e-23)
(-0.000667371 5.12165e-07 0)
(-0.000671565 5.35724e-07 -5.70806e-23)
(-0.000676103 5.46288e-07 0)
(-0.000680849 5.46431e-07 0)
(-0.000685689 5.38486e-07 -5.39024e-23)
(-0.000690534 5.24577e-07 0)
(-0.000695313 5.06644e-07 -5.16463e-23)
(-0.000699977 4.86445e-07 0)
(-0.000704492 4.6555e-07 0)
(-0.000708844 4.45292e-07 -4.80982e-23)
(-0.000713027 4.26712e-07 0)
(-0.000717046 4.10452e-07 -4.56436e-23)
(-0.00072091 3.96632e-07 0)
(-0.000724623 3.84698e-07 0)
(-0.000728177 3.73251e-07 0)
(-0.000731538 3.59874e-07 4.05454e-23)
(-0.000734636 3.40846e-07 0)
(-0.000737348 3.09913e-07 -3.78901e-23)
(-0.000739496 2.60521e-07 0)
(-0.000740798 2.11749e-07 0)
(-0.000740874 1.24565e-07 0)
(-0.000739239 -1.25203e-08 0)
(-0.000735237 -2.05223e-07 0)
(-0.000727996 -4.74559e-07 0)
(-0.000716201 -8.71064e-07 0)
(-0.000697346 -1.87553e-06 5.27268e-23)
(-0.000673338 -1.85678e-06 0)
(-0.000595329 -1.20242e-05 0)
(1.50936e-05 -0.000133523 -2.00527e-23)
(0.000108165 -0.000300391 2.67587e-23)
(0.000235715 -0.000381002 0)
(0.000369169 -0.000391182 -1.77268e-23)
(0.000477225 -0.000347009 0)
(0.000536607 -0.000262879 -7.11239e-24)
(0.000530153 -0.000150799 1.4035e-23)
(0.000445038 -2.03414e-05 1.21634e-23)
(0.000271882 0.000121202 0)
(4.03949e-06 0.000268512 7.59225e-24)
(-0.000363027 0.000417905 1.11984e-24)
(-0.000832299 0.000567028 0)
(-0.00140569 0.000714555 0)
(-0.00208444 0.000859917 0)
(-0.00286936 0.00100306 0)
(-0.00376104 0.00114422 -8.01485e-24)
(-0.00475993 0.00128378 0)
(-0.00586633 0.0014221 1.91058e-23)
(-0.00708036 0.00155939 0)
(-0.00840178 0.00169561 0)
(-0.00982982 0.00183044 -3.15439e-23)
(-0.011363 0.0019632 0)
(-0.0129988 0.00209284 4.01606e-23)
(-0.0147336 0.00221793 -2.57404e-23)
(-0.0165621 0.00233671 2.79244e-23)
(-0.0184773 0.00244708 -3.00215e-23)
(-0.0204705 0.00254668 -3.19983e-23)
(-0.0225306 0.00263294 0)
(-0.0246447 0.00270315 0)
(-0.0267973 0.00275454 3.68277e-23)
(-0.0289709 0.00278437 -3.13983e-23)
(-0.0311458 0.00279 0)
(-0.0333005 0.00276902 0)
(-0.0354116 0.00271932 3.90962e-23)
(-0.0374545 0.00263918 0)
(-0.0394034 0.00252736 0)
(-0.041232 0.00238319 -3.61301e-23)
(-0.0429139 0.00220661 0)
(-0.0444232 0.00199824 2.95011e-23)
(-0.0457347 0.00175939 -5.61572e-23)
(-0.0468249 0.00149205 0)
(-0.047672 0.00119893 0)
(-0.0482569 0.000883324 -6.07175e-23)
(-0.0485633 0.000549113 -3.94199e-23)
(-0.048578 0.000200651 -1.58657e-23)
(-0.0482914 -0.000157247 -1.18183e-24)
(-0.0476978 -0.0005197 2.30223e-23)
(-0.0467952 -0.000881518 1.04426e-22)
(-0.0455856 -0.00123755 -9.64762e-23)
(-0.044075 -0.00158283 -7.01355e-23)
(-0.0422727 -0.00191271 0)
(-0.0401916 -0.00222296 1.02909e-22)
(-0.0378477 -0.00250988 -1.03492e-22)
(-0.0352597 -0.00277037 0)
(-0.0324484 -0.00300199 0)
(-0.0294366 -0.00320299 0)
(-0.0262483 -0.00337231 1.77563e-22)
(-0.0229083 -0.00350952 0)
(-0.0194419 -0.0036148 -3.81222e-22)
(-0.0158745 -0.0036888 0)
(-0.0122311 -0.00373255 -4.13109e-22)
(-0.00853619 -0.00374734 0)
(-0.00481379 -0.00373454 4.30326e-22)
(-0.00108721 -0.00369542 0)
(0.0026207 -0.00363112 -4.27474e-22)
(0.00628802 -0.00354278 1.98895e-22)
(0.0098924 -0.00343145 0)
(0.0134117 -0.00329788 3.83468e-22)
(0.0168237 -0.00314248 1.89409e-22)
(0.0201055 -0.00296537 1.76704e-22)
(0.0232333 -0.00276654 0)
(0.0261827 -0.00254597 1.32611e-22)
(0.0289279 -0.00230381 1.30961e-22)
(0.0314427 -0.00204049 0)
(0.0337001 -0.001757 -9.61017e-23)
(0.0356733 -0.00145495 1.45502e-22)
(0.0373362 -0.0011368 0)
(0.0386642 -0.000805929 4.18755e-23)
(0.0396356 -0.000466678 0)
(0.0402325 -0.00012437 -1.68878e-23)
(0.040442 0.000214865 0)
(0.0402579 0.000544321 -7.26886e-23)
(0.0396813 0.000856772 -3.70755e-23)
(0.0387219 0.00114502 4.79422e-23)
(0.0373982 0.00140218 1.13553e-22)
(0.0357379 0.00162209 -1.27973e-22)
(0.0337778 0.00179972 0)
(0.0315624 0.00193153 0)
(0.0291431 0.00201574 0)
(0.026576 0.00205248 5.00383e-22)
(0.0239198 0.00204377 1.74219e-22)
(0.0212331 0.00199339 -1.7327e-22)
(0.0185723 0.00190662 0)
(0.0159888 0.00178978 -1.4557e-22)
(0.0135277 0.00164983 1.59551e-22)
(0.0112257 0.00149395 1.52637e-22)
(0.0091106 0.00132912 0)
(0.00720085 0.00116185 0)
(0.00550566 0.000998042 0)
(0.00402543 0.000842861 1.22159e-22)
(0.00275258 0.000700646 0)
(0.00167257 0.000574808 -2.07698e-22)
(0.000765313 0.000467681 -3.00005e-22)
(6.85228e-06 0.000380367 1.88118e-22)
(-0.000628707 0.000312629 0)
(-0.00116716 0.000262937 8.41072e-23)
(-0.00163227 0.000228691 0)
(-0.00204426 0.000206562 1.62897e-22)
(-0.00241883 0.000192907 -7.78984e-23)
(-0.00276675 0.000184197 -7.65002e-23)
(-0.00309406 0.00017736 0)
(-0.00340275 0.000170002 -2.27336e-22)
(-0.00369164 0.000160492 1.48445e-22)
(-0.00395752 0.000147939 7.39559e-23)
(-0.00419602 0.000132083 0)
(-0.00440259 0.000113159 7.1159e-23)
(-0.0045731 9.17465e-05 2.07878e-22)
(-0.00470432 6.86318e-05 0)
(-0.00479426 4.46981e-05 1.32055e-22)
(-0.00484224 2.08363e-05 1.28693e-22)
(-0.00484896 -2.11674e-06 1.25203e-22)
(-0.00481636 -2.34652e-05 0)
(-0.0047475 -4.26081e-05 0)
(-0.00464632 -5.91092e-05 0)
(-0.00451746 -7.26905e-05 -5.59026e-23)
(-0.00436596 -8.32239e-05 -5.33962e-23)
(-0.00419706 -9.07185e-05 0)
(-0.00401597 -9.53021e-05 -1.01526e-22)
(-0.0038277 -9.71987e-05 -9.87637e-23)
(-0.00363687 -9.6704e-05 0)
(-0.00344763 -9.41607e-05 -9.29448e-23)
(-0.00326356 -8.99358e-05 -1.83689e-22)
(-0.00308762 -8.43992e-05 8.90995e-23)
(-0.00292214 -7.79075e-05 8.91299e-23)
(-0.00276887 -7.07902e-05 0)
(-0.00262896 -6.33406e-05 0)
(-0.00250309 -5.58102e-05 0)
(-0.00239147 -4.84067e-05 8.27072e-23)
(-0.00229392 -4.12942e-05 -8.26853e-23)
(-0.00221 -3.45954e-05 -1.62626e-22)
(-0.00213901 -2.83962e-05 8.01196e-23)
(-0.00208008 -2.275e-05 -7.9853e-23)
(-0.00203222 -1.76829e-05 -7.85553e-23)
(-0.00199441 -1.3199e-05 0)
(-0.00196557 -9.28547e-06 0)
(-0.00194464 -5.91644e-06 7.63259e-23)
(-0.0019306 -3.05728e-06 0)
(-0.00192246 -6.67793e-07 0)
(-0.00191932 1.29249e-06 -1.46987e-22)
(-0.00192034 2.85942e-06 0)
(-0.00192475 4.10631e-06 -7.145e-23)
(-0.00193187 5.05575e-06 7.04392e-23)
(-0.00194109 5.74853e-06 0)
(-0.00195187 6.22364e-06 -6.80903e-23)
(-0.00196377 6.51666e-06 0)
(-0.00197638 6.6602e-06 0)
(-0.00198937 6.68422e-06 6.45182e-23)
(-0.00200249 6.61613e-06 -1.2633e-22)
(-0.00201553 6.48082e-06 6.18976e-23)
(-0.00202832 6.3006e-06 0)
(-0.00204077 6.09493e-06 0)
(-0.00205281 5.87981e-06 -5.76501e-23)
(-0.00206441 5.66699e-06 0)
(-0.00207556 5.46274e-06 -5.47814e-23)
(-0.00208625 5.26641e-06 0)
(-0.00209647 5.06882e-06 0)
(-0.00210617 4.85055e-06 0)
(-0.00211521 4.5804e-06 -4.88767e-23)
(-0.00212336 4.21408e-06 0)
(-0.00213026 3.69234e-06 4.57352e-23)
(-0.00213533 2.94107e-06 0)
(-0.00213779 1.91516e-06 0)
(-0.00213659 4.67346e-07 -8.16126e-23)
(-0.00213031 -1.52519e-06 7.82258e-23)
(-0.00211715 -4.21763e-06 0)
(-0.00209476 -7.86649e-06 0)
(-0.00205981 -1.29835e-05 0)
(-0.00200685 -2.08737e-05 -1.9268e-22)
(-0.00193787 -3.329e-05 0)
(-0.00177884 -6.37902e-05 1.13993e-22)
(1.19995e-05 -0.000244997 -2.76092e-24)
(7.30297e-05 -0.0005176 -3.99634e-23)
(0.00013269 -0.000611546 0)
(0.000160021 -0.000563676 3.82896e-23)
(0.00012362 -0.000406058 0)
(-5.07657e-07 -0.000166024 0)
(-0.000230824 0.000133699 2.69418e-24)
(-0.00058173 0.000474738 -1.21544e-23)
(-0.0010644 0.000842679 -1.29202e-23)
(-0.00168734 0.00122662 -7.56539e-24)
(-0.00245693 0.00161866 0)
(-0.0033779 0.00201336 0)
(-0.0044537 0.00240721 2.83714e-24)
(-0.00568685 0.00279814 -2.7602e-25)
(-0.00707908 0.00318506 6.56421e-24)
(-0.00863146 0.00356744 0)
(-0.0103444 0.00394496 2.01136e-23)
(-0.0122176 0.00431718 -1.88489e-23)
(-0.0142499 0.0046833 0)
(-0.0164389 0.00504195 4.26571e-23)
(-0.0187811 0.00539104 3.0965e-23)
(-0.0212711 0.00572772 -5.88678e-23)
(-0.0239016 0.00604829 -3.92824e-23)
(-0.0266631 0.00634828 0)
(-0.0295434 0.00662249 8.39672e-23)
(-0.0325279 0.00686512 9.22297e-23)
(-0.0355986 0.00706991 0)
(-0.038735 0.00723038 1.07951e-22)
(-0.0419132 0.00733994 0)
(-0.0451068 0.0073922 1.21683e-22)
(-0.0482865 0.00738116 6.68827e-23)
(-0.0514209 0.00730143 0)
(-0.0544765 0.00714849 0)
(-0.0574184 0.00691888 0)
(-0.0602111 0.00661035 0)
(-0.0628186 0.00622208 0)
(-0.0652055 0.00575473 0)
(-0.0673373 0.00521056 1.29254e-22)
(-0.0691817 0.0045934 -1.80333e-22)
(-0.0707083 0.00390866 0)
(-0.0718901 0.00316323 0)
(-0.0727033 0.00236535 0)
(-0.0731285 0.00152442 -1.06199e-23)
(-0.0731501 0.000650788 3.79228e-23)
(-0.0727574 -0.000244393 4.32993e-23)
(-0.0719446 -0.00114951 5.11389e-24)
(-0.0707108 -0.0020527 2.13621e-23)
(-0.0690595 -0.00294231 -6.37864e-23)
(-0.066999 -0.00380711 1.57443e-23)
(-0.0645419 -0.00463653 -1.0689e-22)
(-0.0617051 -0.00542093 0)
(-0.0585087 -0.00615181 -1.67753e-22)
(-0.0549763 -0.00682194 1.7348e-23)
(-0.0511342 -0.00742552 0)
(-0.0470107 -0.00795822 0)
(-0.0426357 -0.0084172 2.84504e-22)
(-0.0380404 -0.00880105 0)
(-0.0332562 -0.0091097 0)
(-0.0283149 -0.00934422 -3.36235e-22)
(-0.0232478 -0.00950667 -7.45425e-22)
(-0.0180856 -0.00959979 4.06152e-22)
(-0.0128583 -0.00962678 0)
(-0.00759484 -0.00959098 -4.25134e-22)
(-0.00232339 -0.00949557 0)
(0.00292828 -0.00934335 -3.87071e-22)
(0.00813405 -0.00913657 -4.12226e-22)
(0.0132666 -0.00887698 7.58104e-22)
(0.0182988 -0.00856569 3.43344e-22)
(0.023203 -0.00820306 0)
(0.0279503 -0.00778886 -6.29085e-22)
(0.0325107 -0.0073224 0)
(0.036852 -0.00680288 -7.90724e-22)
(0.0409404 -0.00622972 -4.55305e-22)
(0.0447402 -0.00560291 -3.90923e-22)
(0.048214 -0.00492349 3.24746e-22)
(0.0513235 -0.00419394 -3.99244e-22)
(0.0540299 -0.00341853 0)
(0.0562951 -0.00260371 0)