# Forces      
# CofR        : (0.000000e+00 0.000000e+00 2.000000e-02)
# Time        forces(pressure viscous porous)	moments(pressure viscous porous)
0             	((0.000000e+00 0.000000e+00 0.000000e+00) (1.058647e+03 -8.935257e+02 6.165538e+00) (0.000000e+00 0.000000e+00 0.000000e+00)) ((0.000000e+00 0.000000e+00 0.000000e+00) (1.290977e+04 1.353483e+04 3.226938e+06) (0.000000e+00 0.000000e+00 0.000000e+00))
10            	((-3.452101e+09 -2.129796e+09 -5.304325e+09) (8.280655e+03 7.983215e+02 -9.359278e+02) (0.000000e+00 0.000000e+00 0.000000e+00)) ((4.405005e+10 -5.927085e+10 -2.341606e+11) (1.769206e+04 1.029545e+05 -1.311899e+07) (0.000000e+00 0.000000e+00 0.000000e+00))
20            	((4.138777e+09 4.715271e+09 9.792178e+08) (1.497934e+04 1.510942e+04 -9.224685e+02) (0.000000e+00 0.000000e+00 0.000000e+00)) ((-5.329494e+10 7.240022e+10 8.666488e+12) (-2.056156e+05 2.043130e+05 -1.317296e+07) (0.000000e+00 0.000000e+00 0.000000e+00))
30            	((-4.617421e+09 -2.766150e+09 -2.858909e+09) (3.227751e+04 1.864909e+04 1.558915e+02) (0.000000e+00 0.000000e+00 0.000000e+00)) ((5.481986e+10 -6.113373e+10 2.991485e+12) (-2.305738e+05 4.153340e+05 -1.817236e+07) (0.000000e+00 0.000000e+00 0.000000e+00))
40            	((1.717234e+13 1.725786e+13 5.468999e+09) (-4.773566e+09 -3.782193e+09 3.862768e+09) (0.000000e+00 0.000000e+00 0.000000e+00)) ((-4.027167e+14 4.006784e+14 7.815148e+14) (-6.176824e+09 -1.908200e+11 -1.924443e+11) (0.000000e+00 0.000000e+00 0.000000e+00))
