# Forces      
# CofR        : (0.000000e+00 0.000000e+00 2.000000e-02)
# Time        forces(pressure viscous porous)	moments(pressure viscous porous)
0             	((0.000000e+00 0.000000e+00 0.000000e+00) (-4.271913e-01 3.086738e+00 6.487483e-02) (0.000000e+00 0.000000e+00 0.000000e+00)) ((0.000000e+00 0.000000e+00 0.000000e+00) (-3.267142e+01 -9.584580e+00 2.871477e+04) (0.000000e+00 0.000000e+00 0.000000e+00))
10            	((4.545438e+08 -1.330825e+09 -1.878935e+09) (4.707186e+01 -1.494088e+02 -1.785172e+01) (0.000000e+00 0.000000e+00 0.000000e+00)) ((3.243172e+10 9.878245e+09 2.560158e+12) (2.025142e+03 2.406088e+02 -1.008528e+05) (0.000000e+00 0.000000e+00 0.000000e+00))
20            	((-8.395032e+08 4.401735e+09 2.055559e+09) (6.630014e+01 -1.317563e+02 -4.720375e+01) (0.000000e+00 0.000000e+00 0.000000e+00)) ((-6.003561e+10 -1.540098e+10 7.106591e+12) (1.954688e+03 4.353955e+02 -9.672365e+04) (0.000000e+00 0.000000e+00 0.000000e+00))
30            	((1.019692e+09 4.496155e+09 2.564451e+09) (3.052318e+01 -3.896319e+01 -4.942940e+01) (0.000000e+00 0.000000e+00 0.000000e+00)) ((-8.559183e+09 4.029696e+10 8.602073e+12) (7.178637e+02 -2.081940e+02 -9.885337e+04) (0.000000e+00 0.000000e+00 0.000000e+00))
40            	((6.707758e+09 -8.475443e+08 4.743395e+09) (9.081173e+01 -1.145751e+01 -1.644453e+02) (0.000000e+00 0.000000e+00 0.000000e+00)) ((6.338798e+10 8.365653e+10 8.796634e+12) (-5.441197e+01 -7.136249e+02 -1.011815e+05) (0.000000e+00 0.000000e+00 0.000000e+00))
50            	((1.289694e+10 3.373082e+09 1.991341e+09) (9.794931e+01 -8.823929e+01 -1.744124e+02) (0.000000e+00 0.000000e+00 0.000000e+00)) ((1.742201e+10 1.208755e+11 8.445061e+12) (1.239235e+03 -1.615261e+03 -1.009683e+05) (0.000000e+00 0.000000e+00 0.000000e+00))
60            	((1.329165e+10 1.374158e+10 5.228225e+09) (1.014298e+01 -7.542110e+01 -1.803940e+02) (0.000000e+00 0.000000e+00 0.000000e+00)) ((-8.874081e+10 8.599269e+10 8.236812e+12) (3.683734e+02 -1.909974e+03 -1.001820e+05) (0.000000e+00 0.000000e+00 0.000000e+00))
70            	((-3.675731e+09 2.274404e+09 8.737516e+09) (-7.672835e+00 -4.102778e+01 -2.025038e+02) (0.000000e+00 0.000000e+00 0.000000e+00)) ((1.551680e+11 -2.057965e+11 8.435055e+12) (2.822908e+03 -1.530162e+03 -9.998550e+04) (0.000000e+00 0.000000e+00 0.000000e+00))
80            	((5.045955e+09 3.383710e+09 7.978667e+09) (5.269008e+01 4.737203e+01 -2.610806e+02) (0.000000e+00 0.000000e+00 0.000000e+00)) ((1.286085e+11 -1.169039e+10 8.423229e+12) (-6.532442e+02 9.467782e+02 -1.036837e+05) (0.000000e+00 0.000000e+00 0.000000e+00))
90            	((-1.063441e+10 9.632296e+08 6.960203e+08) (7.898304e+01 -1.008809e+02 -3.189620e+02) (0.000000e+00 0.000000e+00 0.000000e+00)) ((1.019685e+11 -2.754908e+11 8.050911e+12) (-1.333563e+03 3.454260e+03 -1.041144e+05) (0.000000e+00 0.000000e+00 0.000000e+00))
100           	((4.305146e+09 5.256377e+09 3.622329e+08) (1.038520e+02 -1.137410e+02 -1.039059e+02) (0.000000e+00 0.000000e+00 0.000000e+00)) ((4.674287e+10 1.856063e+10 8.121754e+12) (-3.035068e+03 4.960275e+03 -1.001925e+05) (0.000000e+00 0.000000e+00 0.000000e+00))
110           	((5.115750e+09 -1.292180e+10 9.555978e+09) (6.736716e+01 -1.856667e+01 5.098349e+01) (0.000000e+00 0.000000e+00 0.000000e+00)) ((2.826647e+11 1.372122e+11 7.852472e+12) (-3.272374e+03 4.295647e+03 -1.027777e+05) (0.000000e+00 0.000000e+00 0.000000e+00))
120           	((4.744162e+09 -7.980185e+09 4.050398e+09) (8.304144e+01 2.090317e+01 1.072417e+02) (0.000000e+00 0.000000e+00 0.000000e+00)) ((2.211473e+11 7.626950e+10 8.239236e+12) (-2.707063e+03 5.363229e+03 -1.016792e+05) (0.000000e+00 0.000000e+00 0.000000e+00))
130           	((1.244506e+10 -1.201686e+10 2.003807e+09) (1.334187e+02 -5.310504e+01 7.710722e+01) (0.000000e+00 0.000000e+00 0.000000e+00)) ((2.475308e+11 1.045802e+11 8.634453e+12) (-2.165956e+03 4.882403e+03 -1.025895e+05) (0.000000e+00 0.000000e+00 0.000000e+00))
140           	((3.541084e+09 -1.321336e+10 3.399472e+09) (6.604670e+00 -9.580500e+01 2.968566e+01) (0.000000e+00 0.000000e+00 0.000000e+00)) ((2.074614e+11 1.731505e+11 8.501412e+12) (-1.699125e+03 1.170423e+02 -1.024392e+05) (0.000000e+00 0.000000e+00 0.000000e+00))
150           	((-9.264184e+09 -2.069397e+10 -2.424280e+09) (9.850121e+01 3.326063e+00 -2.003148e+02) (0.000000e+00 0.000000e+00 0.000000e+00)) ((2.306393e+11 -3.322779e+10 8.353019e+12) (-9.127398e+02 -2.167145e+03 -1.017147e+05) (0.000000e+00 0.000000e+00 0.000000e+00))
160           	((-5.113481e+08 -1.084913e+10 -6.782120e+09) (8.130734e+01 -2.519993e+01 -4.455074e+02) (0.000000e+00 0.000000e+00 0.000000e+00)) ((9.834704e+10 -9.687231e+09 8.383641e+12) (-8.258254e+02 -1.296217e+03 -1.014142e+05) (0.000000e+00 0.000000e+00 0.000000e+00))
170           	((-3.173702e+09 -4.170079e+09 -1.442545e+10) (1.761525e+02 -8.101771e+01 -7.477968e+02) (0.000000e+00 0.000000e+00 0.000000e+00)) ((1.670767e+11 -9.871433e+10 7.962764e+12) (1.286836e+03 2.934553e+00 -1.043073e+05) (0.000000e+00 0.000000e+00 0.000000e+00))
180           	((-1.830562e+08 -2.088476e+09 -2.426869e+10) (1.070689e+02 -7.917724e+01 -1.062012e+03) (0.000000e+00 0.000000e+00 0.000000e+00)) ((4.335919e+10 -1.069080e+11 7.590533e+12) (1.153780e+03 -7.555528e+02 -1.042374e+05) (0.000000e+00 0.000000e+00 0.000000e+00))
190           	((-6.764449e+08 3.073806e+10 -2.283302e+10) (7.617264e+01 -1.064008e+02 -1.524992e+03) (0.000000e+00 0.000000e+00 0.000000e+00)) ((-2.082597e+11 -7.248103e+09 7.455037e+12) (-8.890271e+02 -1.797373e+03 -1.027353e+05) (0.000000e+00 0.000000e+00 0.000000e+00))
200           	((5.131520e+09 1.150218e+11 -6.413945e+10) (2.062579e+02 6.531745e+01 -2.144929e+03) (0.000000e+00 0.000000e+00 0.000000e+00)) ((-1.107322e+12 2.137009e+11 7.742263e+12) (-2.852403e+03 -1.209707e+03 -1.013067e+05) (0.000000e+00 0.000000e+00 0.000000e+00))
210           	((5.970505e+10 7.584017e+11 -2.221929e+11) (2.489719e+02 4.967014e+02 -2.567234e+03) (0.000000e+00 0.000000e+00 0.000000e+00)) ((-9.553826e+12 1.419749e+12 1.171537e+13) (-1.253608e+04 2.582189e+03 -9.748088e+04) (0.000000e+00 0.000000e+00 0.000000e+00))
220           	((1.298086e+11 4.768148e+12 -1.134930e+12) (4.333756e+02 1.588112e+03 -4.411080e+03) (0.000000e+00 0.000000e+00 0.000000e+00)) ((-5.567129e+13 7.093591e+12 3.577874e+13) (-5.007049e+04 1.696295e+04 -9.231208e+04) (0.000000e+00 0.000000e+00 0.000000e+00))
230           	((1.046602e+12 3.146672e+13 -6.507624e+12) (8.210133e+02 5.603959e+03 -9.599171e+03) (0.000000e+00 0.000000e+00 0.000000e+00)) ((-3.607870e+14 5.193182e+13 1.781598e+14) (-1.574152e+05 4.587122e+04 -8.535656e+04) (0.000000e+00 0.000000e+00 0.000000e+00))
240           	((3.796134e+12 2.012534e+14 -4.217870e+13) (2.306855e+03 1.655952e+04 -2.126272e+04) (0.000000e+00 0.000000e+00 0.000000e+00)) ((-2.578895e+15 3.909817e+14 1.175201e+15) (-4.755962e+05 1.320465e+05 -5.853780e+04) (0.000000e+00 0.000000e+00 0.000000e+00))
250           	((2.997623e+13 1.292135e+15 -2.874539e+14) (7.022878e+03 4.110117e+04 -4.601755e+04) (0.000000e+00 0.000000e+00 0.000000e+00)) ((-1.668855e+16 2.877073e+15 6.917258e+15) (-1.146733e+06 3.395676e+05 -6.745003e+03) (0.000000e+00 0.000000e+00 0.000000e+00))
260           	((3.981158e+14 5.820007e+15 -1.186631e+15) (1.626405e+04 9.588448e+04 -1.210044e+05) (0.000000e+00 0.000000e+00 0.000000e+00)) ((-7.438122e+16 1.092592e+16 2.037993e+16) (-2.605692e+06 5.738893e+05 6.282153e+04) (0.000000e+00 0.000000e+00 0.000000e+00))
270           	((2.521944e+15 1.770440e+16 -3.168519e+15) (4.617134e+04 2.392281e+05 -2.476018e+05) (0.000000e+00 0.000000e+00 0.000000e+00)) ((-2.660110e+17 3.663717e+16 1.640272e+14) (-5.133828e+06 7.039197e+05 -3.586997e+05) (0.000000e+00 0.000000e+00 0.000000e+00))
280           	((-2.860081e+15 1.857886e+16 -1.970129e+15) (1.898289e+04 2.458901e+05 -3.176637e+05) (0.000000e+00 0.000000e+00 0.000000e+00)) ((-2.765448e+17 8.450466e+16 1.720710e+17) (-5.825682e+06 3.027106e+05 4.874903e+05) (0.000000e+00 0.000000e+00 0.000000e+00))
290           	((3.268633e+16 1.201116e+17 -2.923347e+16) (3.724039e+04 3.638554e+05 -6.893748e+05) (0.000000e+00 0.000000e+00 0.000000e+00)) ((-1.539421e+18 4.456618e+17 -1.082042e+17) (-9.867379e+06 -2.849852e+05 1.540878e+06) (0.000000e+00 0.000000e+00 0.000000e+00))
300           	((2.541963e+16 1.088469e+17 -2.636556e+16) (1.486437e+05 6.156273e+05 -1.207114e+06) (0.000000e+00 0.000000e+00 0.000000e+00)) ((-1.805802e+18 2.721793e+16 -6.155548e+17) (-1.743539e+07 1.220104e+06 -1.631357e+06) (0.000000e+00 0.000000e+00 0.000000e+00))
310           	((1.026870e+17 1.529757e+17 -5.217646e+16) (1.753442e+05 5.531825e+05 -1.290758e+06) (0.000000e+00 0.000000e+00 0.000000e+00)) ((-2.668734e+18 1.051437e+18 -5.420133e+17) (-1.426343e+07 2.453900e+06 -1.139869e+06) (0.000000e+00 0.000000e+00 0.000000e+00))
320           	((2.368004e+17 3.417548e+17 -9.059797e+16) (5.648274e+05 5.742113e+05 -1.378965e+06) (0.000000e+00 0.000000e+00 0.000000e+00)) ((-5.827577e+18 2.629344e+18 -3.131374e+18) (-1.421751e+07 8.761519e+06 -7.353910e+06) (0.000000e+00 0.000000e+00 0.000000e+00))
330           	((3.135739e+17 3.745954e+17 -9.137341e+16) (9.326715e+05 1.200193e+06 -1.165159e+06) (0.000000e+00 0.000000e+00 0.000000e+00)) ((-6.275576e+18 4.403179e+18 -6.739714e+17) (-2.009477e+07 1.603689e+07 -8.390969e+06) (0.000000e+00 0.000000e+00 0.000000e+00))
340           	((3.472645e+17 4.409091e+17 -5.673886e+16) (1.115884e+06 1.493812e+06 -1.113556e+06) (0.000000e+00 0.000000e+00 0.000000e+00)) ((-6.210191e+18 5.133999e+18 -2.015193e+18) (-2.314285e+07 1.989680e+07 -5.343453e+06) (0.000000e+00 0.000000e+00 0.000000e+00))
350           	((4.284017e+17 4.123999e+17 -6.279339e+16) (1.350647e+06 1.323303e+06 -6.482581e+05) (0.000000e+00 0.000000e+00 0.000000e+00)) ((-5.929874e+18 6.280705e+18 -1.499316e+18) (-2.290392e+07 2.388444e+07 -7.603193e+06) (0.000000e+00 0.000000e+00 0.000000e+00))
360           	((1.864478e+17 4.285275e+17 -7.240018e+16) (9.346510e+05 1.497200e+06 -1.014443e+06) (0.000000e+00 0.000000e+00 0.000000e+00)) ((-6.252256e+18 2.365167e+18 -2.672344e+18) (-3.136982e+07 1.730842e+07 -7.214243e+06) (0.000000e+00 0.000000e+00 0.000000e+00))
370           	((1.706380e+17 3.725412e+17 -3.080646e+16) (7.267145e+05 1.516755e+06 -8.747813e+05) (0.000000e+00 0.000000e+00 0.000000e+00)) ((-5.352034e+18 1.698327e+18 -1.162997e+18) (-3.010920e+07 8.055360e+06 -8.053009e+06) (0.000000e+00 0.000000e+00 0.000000e+00))
380           	((1.200744e+17 2.541817e+17 -1.335728e+16) (4.615260e+05 1.440985e+06 -6.593444e+05) (0.000000e+00 0.000000e+00 0.000000e+00)) ((-3.653213e+18 1.184917e+18 -3.309856e+17) (-2.534182e+07 -3.809335e+06 -5.267103e+06) (0.000000e+00 0.000000e+00 0.000000e+00))
390           	((2.289878e+17 2.663174e+17 -4.671934e+16) (5.017934e+05 1.295342e+06 -6.877133e+05) (0.000000e+00 0.000000e+00 0.000000e+00)) ((-3.855931e+18 3.340209e+18 2.534837e+17) (-1.427113e+07 1.361872e+06 -3.027971e+06) (0.000000e+00 0.000000e+00 0.000000e+00))
400           	((3.071282e+17 3.242716e+17 -1.286010e+17) (4.830242e+05 1.269785e+06 -1.425807e+06) (0.000000e+00 0.000000e+00 0.000000e+00)) ((-4.590420e+18 4.517839e+18 1.562201e+18) (-8.851509e+06 5.128025e+06 1.054374e+06) (0.000000e+00 0.000000e+00 0.000000e+00))
410           	((1.078236e+18 6.364929e+17 -2.574997e+17) (1.236568e+06 1.419278e+06 -2.338080e+06) (0.000000e+00 0.000000e+00 0.000000e+00)) ((-1.016989e+19 1.612572e+19 1.414213e+18) (-9.391798e+06 2.529017e+07 2.894627e+06) (0.000000e+00 0.000000e+00 0.000000e+00))
420           	((2.005648e+18 3.253775e+17 -7.944117e+17) (2.401081e+06 1.038828e+06 -4.185175e+06) (0.000000e+00 0.000000e+00 0.000000e+00)) ((-5.899006e+18 3.119496e+19 2.756206e+18) (4.705924e+06 4.859509e+07 1.827286e+06) (0.000000e+00 0.000000e+00 0.000000e+00))
430           	((2.439991e+18 1.385866e+17 -7.633090e+17) (2.380656e+06 3.959950e+05 -7.043513e+06) (0.000000e+00 0.000000e+00 0.000000e+00)) ((-6.441663e+17 4.126115e+19 5.782024e+18) (2.843564e+07 5.298070e+07 6.603776e+06) (0.000000e+00 0.000000e+00 0.000000e+00))
440           	((6.418657e+18 -2.631474e+18 -2.553518e+18) (3.839496e+06 -1.044134e+06 -6.969675e+06) (0.000000e+00 0.000000e+00 0.000000e+00)) ((4.888435e+19 1.035271e+20 1.823532e+19) (7.912667e+07 9.142230e+07 2.973470e+05) (0.000000e+00 0.000000e+00 0.000000e+00))
450           	((7.584714e+18 -8.232805e+18 -6.042687e+17) (6.045899e+06 -3.388026e+06 -1.175252e+07) (0.000000e+00 0.000000e+00 0.000000e+00)) ((1.406350e+20 1.307007e+20 4.207195e+19) (1.720369e+08 1.129957e+08 4.206415e+06) (0.000000e+00 0.000000e+00 0.000000e+00))
460           	((7.532534e+19 1.264676e+19 -8.517819e+18) (1.344224e+07 -3.210747e+06 -5.970024e+05) (0.000000e+00 0.000000e+00 0.000000e+00)) ((-2.260282e+20 1.257125e+21 -5.159534e+18) (8.769847e+07 4.411601e+08 -1.724980e+05) (0.000000e+00 0.000000e+00 0.000000e+00))
470           	((3.163755e+20 9.402253e+19 -9.580839e+19) (3.179658e+07 4.599810e+06 -4.401586e+07) (0.000000e+00 0.000000e+00 0.000000e+00)) ((-1.659939e+21 5.206481e+21 -3.562190e+20) (-2.387708e+08 9.961599e+08 -3.057990e+07) (0.000000e+00 0.000000e+00 0.000000e+00))
480           	((1.750982e+21 7.823805e+20 -5.185180e+20) (7.166076e+07 2.402465e+07 -1.150198e+08) (0.000000e+00 0.000000e+00 0.000000e+00)) ((-1.394665e+22 2.878800e+22 -1.769110e+21) (-1.030792e+09 2.043594e+09 -9.084015e+07) (0.000000e+00 0.000000e+00 0.000000e+00))
490           	((7.572801e+21 4.776032e+21 -1.563396e+21) (1.323298e+08 7.332256e+07 -1.445437e+08) (0.000000e+00 0.000000e+00 0.000000e+00)) ((-8.005885e+22 1.199045e+23 -8.948344e+21) (-3.091132e+09 3.216508e+09 -3.401584e+08) (0.000000e+00 0.000000e+00 0.000000e+00))
500           	((7.133440e+22 2.897156e+22 -1.969376e+22) (4.222819e+08 2.090120e+08 -5.146387e+08) (0.000000e+00 0.000000e+00 0.000000e+00)) ((-4.938643e+23 1.134366e+24 -1.722404e+22) (-7.802815e+09 1.122029e+10 -7.162517e+08) (0.000000e+00 0.000000e+00 0.000000e+00))
510           	((2.772519e+23 1.304714e+23 -4.942640e+22) (9.243694e+08 3.968424e+08 -9.120207e+08) (0.000000e+00 0.000000e+00 0.000000e+00)) ((-2.216562e+24 4.382432e+24 -1.846947e+22) (-1.313877e+10 2.326022e+10 2.024943e+08) (0.000000e+00 0.000000e+00 0.000000e+00))
520           	((2.956863e+24 1.408608e+24 -5.450339e+23) (2.855088e+09 1.275415e+09 -2.632617e+09) (0.000000e+00 0.000000e+00 0.000000e+00)) ((-2.345818e+25 4.611595e+25 -7.157127e+22) (-4.398261e+10 6.889256e+10 -1.649716e+09) (0.000000e+00 0.000000e+00 0.000000e+00))
530           	((2.177751e+25 1.299148e+25 -5.238740e+24) (7.832104e+09 3.924610e+09 -7.008569e+09) (0.000000e+00 0.000000e+00 0.000000e+00)) ((-2.247268e+26 3.550043e+26 -4.151817e+24) (-1.506019e+11 2.172275e+11 -1.129941e+10) (0.000000e+00 0.000000e+00 0.000000e+00))
540           	((1.743124e+26 1.117087e+26 -2.845748e+25) (2.110599e+10 1.137895e+10 -1.969146e+10) (0.000000e+00 0.000000e+00 0.000000e+00)) ((-1.906808e+27 2.679329e+27 6.389869e+24) (-4.652887e+11 5.519102e+11 -4.308896e+10) (0.000000e+00 0.000000e+00 0.000000e+00))
550           	((1.797159e+27 8.462313e+26 -5.582648e+26) (6.268543e+10 3.413524e+10 -7.227866e+10) (0.000000e+00 0.000000e+00 0.000000e+00)) ((-1.513872e+28 2.946979e+28 -1.092306e+27) (-1.526228e+12 1.863993e+12 -1.970238e+11) (0.000000e+00 0.000000e+00 0.000000e+00))
560           	((9.352279e+27 1.624437e+27 -1.383405e+27) (1.678011e+11 3.890179e+10 -1.713176e+11) (0.000000e+00 0.000000e+00 0.000000e+00)) ((-2.890318e+28 1.497025e+29 4.106201e+27) (-1.743576e+12 4.662238e+12 -1.167789e+11) (0.000000e+00 0.000000e+00 0.000000e+00))
570           	((6.235154e+28 2.225608e+28 -1.112524e+28) (4.407219e+11 1.120036e+11 -2.883526e+11) (0.000000e+00 0.000000e+00 0.000000e+00)) ((-3.942951e+29 9.942123e+29 -2.099701e+28) (-5.935504e+12 1.161558e+13 -3.614795e+11) (0.000000e+00 0.000000e+00 0.000000e+00))
580           	((4.577886e+29 2.373174e+29 -9.573055e+28) (1.093375e+12 4.305025e+11 -9.010200e+11) (0.000000e+00 0.000000e+00 0.000000e+00)) ((-4.129123e+30 7.327902e+30 -4.911825e+29) (-1.952174e+13 3.016709e+13 -2.035265e+12) (0.000000e+00 0.000000e+00 0.000000e+00))
590           	((4.372677e+30 2.667386e+30 -5.971519e+29) (3.253233e+12 1.847723e+12 -1.828325e+12) (0.000000e+00 0.000000e+00 0.000000e+00)) ((-4.560890e+31 6.938129e+31 -2.223975e+30) (-7.070691e+13 9.117494e+13 -5.757770e+12) (0.000000e+00 0.000000e+00 0.000000e+00))
600           	((3.310018e+31 2.034916e+31 -8.654882e+30) (8.853821e+12 5.202702e+12 -8.947664e+12) (0.000000e+00 0.000000e+00 0.000000e+00)) ((-3.495669e+32 5.354596e+32 -1.554950e+31) (-2.013974e+14 2.596651e+14 -1.074942e+13) (0.000000e+00 0.000000e+00 0.000000e+00))
610           	((1.383758e+32 7.162782e+31 -4.740054e+31) (1.830646e+13 1.114399e+13 -3.085440e+13) (0.000000e+00 0.000000e+00 0.000000e+00)) ((-1.264441e+33 2.252756e+33 -8.766685e+31) (-4.235196e+14 5.239176e+14 -2.619513e+13) (0.000000e+00 0.000000e+00 0.000000e+00))
620           	((8.669088e+32 3.168376e+32 -2.857126e+32) (4.617202e+13 1.711708e+13 -8.065225e+13) (0.000000e+00 0.000000e+00 0.000000e+00)) ((-5.548223e+33 1.410114e+34 -1.808028e+32) (-7.308141e+14 1.237579e+15 -5.631367e+13) (0.000000e+00 0.000000e+00 0.000000e+00))
630           	((6.288246e+33 2.558044e+33 -1.340665e+33) (1.303847e+14 5.066588e+13 -1.601766e+14) (0.000000e+00 0.000000e+00 0.000000e+00)) ((-4.380697e+34 1.011049e+35 -7.243027e+32) (-1.960712e+15 3.378949e+15 -1.553493e+14) (0.000000e+00 0.000000e+00 0.000000e+00))
640           	((5.794408e+34 2.958633e+34 -9.486806e+33) (3.957331e+14 1.727968e+14 -3.325769e+14) (0.000000e+00 0.000000e+00 0.000000e+00)) ((-5.090166e+35 9.173922e+35 -4.536033e+33) (-7.421373e+15 1.064575e+16 -7.155636e+14) (0.000000e+00 0.000000e+00 0.000000e+00))
650           	((4.498923e+35 2.623100e+35 -4.344232e+34) (1.042094e+15 5.393130e+14 -2.843677e+14) (0.000000e+00 0.000000e+00 0.000000e+00)) ((-4.461651e+36 6.993441e+36 -1.255034e+35) (-2.062427e+16 2.839481e+16 -1.722719e+15) (0.000000e+00 0.000000e+00 0.000000e+00))
660           	((3.629397e+36 2.465357e+36 -7.080597e+35) (2.982682e+15 1.934705e+15 -1.948730e+15) (0.000000e+00 0.000000e+00 0.000000e+00)) ((-4.085505e+37 5.771524e+37 -1.906968e+36) (-7.102242e+16 8.172456e+16 -7.744432e+15) (0.000000e+00 0.000000e+00 0.000000e+00))
670           	((2.599203e+37 1.220227e+37 -6.991630e+36) (8.297565e+15 4.297728e+15 -9.842580e+15) (0.000000e+00 0.000000e+00 0.000000e+00)) ((-2.130291e+38 4.226361e+38 -7.983976e+36) (-1.620919e+17 2.289617e+17 -1.437443e+16) (0.000000e+00 0.000000e+00 0.000000e+00))
680           	((1.654149e+38 6.978350e+37 -4.109882e+37) (2.112731e+16 8.468440e+15 -2.743108e+16) (0.000000e+00 0.000000e+00 0.000000e+00)) ((-1.198849e+39 2.662840e+39 -6.194879e+36) (-3.595632e+17 5.821240e+17 -1.928444e+16) (0.000000e+00 0.000000e+00 0.000000e+00))
690           	((8.851033e+38 4.595784e+38 -2.179813e+38) (5.084004e+16 2.101557e+16 -5.453519e+16) (0.000000e+00 0.000000e+00 0.000000e+00)) ((-7.971337e+39 1.430370e+40 -1.303550e+38) (-9.160737e+17 1.313413e+18 -6.036503e+16) (0.000000e+00 0.000000e+00 0.000000e+00))
700           	((6.240735e+39 3.366925e+39 -1.257567e+39) (1.301691e+17 5.871425e+16 -1.144788e+17) (0.000000e+00 0.000000e+00 0.000000e+00)) ((-6.000700e+40 9.942263e+40 -1.195871e+39) (-2.735100e+18 3.350967e+18 -1.994689e+17) (0.000000e+00 0.000000e+00 0.000000e+00))
710           	((4.640854e+40 2.820425e+40 -1.133287e+40) (3.307243e+17 1.712864e+17 -3.434835e+17) (0.000000e+00 0.000000e+00 0.000000e+00)) ((-4.918519e+41 7.447659e+41 -2.117668e+40) (-7.853508e+18 9.131942e+18 -8.655956e+17) (0.000000e+00 0.000000e+00 0.000000e+00))
720           	((3.458240e+41 1.747263e+41 -6.157977e+40) (9.675819e+17 4.548857e+17 -9.001853e+17) (0.000000e+00 0.000000e+00 0.000000e+00)) ((-3.100315e+42 5.468095e+42 -8.546503e+40) (-1.996384e+19 2.572194e+19 -1.529871e+18) (0.000000e+00 0.000000e+00 0.000000e+00))
730           	((2.654133e+42 1.220981e+42 -3.516856e+41) (2.713606e+18 9.313956e+17 -1.542749e+18) (0.000000e+00 0.000000e+00 0.000000e+00)) ((-2.208754e+43 4.209098e+43 -1.876077e+42) (-5.027420e+19 7.268432e+19 -5.965232e+18) (0.000000e+00 0.000000e+00 0.000000e+00))
740           	((1.668167e+43 8.733160e+42 -3.917673e+42) (6.632778e+18 2.829276e+18 -5.269318e+18) (0.000000e+00 0.000000e+00 0.000000e+00)) ((-1.572653e+44 2.697741e+44 -1.757142e+43) (-1.430670e+20 1.836565e+20 -1.794246e+19) (0.000000e+00 0.000000e+00 0.000000e+00))
750           	((1.192752e+44 5.872825e+43 -2.936487e+43) (1.808445e+19 8.058321e+18 -2.025039e+19) (0.000000e+00 0.000000e+00 0.000000e+00)) ((-1.053010e+45 1.940242e+45 -1.094811e+44) (-3.562323e+20 5.020279e+20 -2.939500e+19) (0.000000e+00 0.000000e+00 0.000000e+00))
760           	((7.158618e+44 3.290325e+44 -1.490595e+44) (4.458908e+19 1.935344e+19 -4.246874e+19) (0.000000e+00 0.000000e+00 0.000000e+00)) ((-5.878059e+45 1.176928e+46 -6.988922e+44) (-8.671182e+20 1.314563e+21 -7.622370e+19) (0.000000e+00 0.000000e+00 0.000000e+00))
770           	((5.036908e+45 2.476258e+45 -1.112503e+45) (1.149428e+20 5.140039e+19 -1.041271e+20) (0.000000e+00 0.000000e+00 0.000000e+00)) ((-4.275502e+46 8.201453e+46 -1.982467e+45) (-2.122118e+21 3.406478e+21 -9.865773e+19) (0.000000e+00 0.000000e+00 0.000000e+00))
780           	((3.679862e+46 1.923632e+46 -8.023183e+45) (3.108828e+20 1.515729e+20 -3.210173e+20) (0.000000e+00 0.000000e+00 0.000000e+00)) ((-3.366571e+47 5.950568e+47 -1.823315e+46) (-5.936667e+21 8.766361e+21 -3.652268e+20) (0.000000e+00 0.000000e+00 0.000000e+00))
790           	((2.703990e+47 1.398926e+47 -6.969211e+46) (7.925909e+20 4.301398e+20 -9.500260e+20) (0.000000e+00 0.000000e+00 0.000000e+00)) ((-2.389491e+48 4.371219e+48 -9.478507e+46) (-1.624279e+22 2.255004e+22 -1.096887e+21) (0.000000e+00 0.000000e+00 0.000000e+00))
800           	((1.779543e+48 9.049371e+47 -3.315197e+47) (2.251342e+21 1.111190e+21 -2.282174e+21) (0.000000e+00 0.000000e+00 0.000000e+00)) ((-1.586154e+49 2.784077e+49 -1.625829e+48) (-3.942086e+22 5.704939e+22 -3.142621e+21) (0.000000e+00 0.000000e+00 0.000000e+00))
810           	((1.175969e+49 6.161022e+48 -2.803313e+48) (5.475685e+21 2.584495e+21 -5.592906e+21) (0.000000e+00 0.000000e+00 0.000000e+00)) ((-1.093048e+50 1.901637e+50 -5.312120e+48) (-1.120759e+23 1.509826e+23 -9.167501e+21) (0.000000e+00 0.000000e+00 0.000000e+00))
820           	((8.127247e+49 3.935387e+49 -1.658479e+49) (1.442581e+22 6.510574e+21 -1.399194e+22) (0.000000e+00 0.000000e+00 0.000000e+00)) ((-6.797910e+50 1.293689e+51 -3.513110e+49) (-2.621265e+23 3.918317e+23 -1.841683e+22) (0.000000e+00 0.000000e+00 0.000000e+00))
830           	((4.627490e+50 3.043924e+50 -9.399573e+49) (3.400403e+22 1.828409e+22 -2.950886e+22) (0.000000e+00 0.000000e+00 0.000000e+00)) ((-5.317601e+51 7.507755e+51 -3.257254e+50) (-7.811978e+23 9.645450e+23 -7.036572e+22) (0.000000e+00 0.000000e+00 0.000000e+00))
840           	((3.910374e+51 2.164193e+51 -8.188410e+50) (9.205421e+22 5.065278e+22 -9.111099e+22) (0.000000e+00 0.000000e+00 0.000000e+00)) ((-3.686315e+52 6.184737e+52 -1.558207e+51) (-2.120320e+24 2.654032e+24 -1.748815e+23) (0.000000e+00 0.000000e+00 0.000000e+00))
850           	((2.920808e+52 1.655878e+52 -6.259327e+51) (2.838305e+23 1.541872e+23 -2.786746e+23) (0.000000e+00 0.000000e+00 0.000000e+00)) ((-2.853354e+53 4.606920e+53 -1.608063e+52) (-5.309499e+24 7.207726e+24 -2.795238e+23) (0.000000e+00 0.000000e+00 0.000000e+00))
860           	((2.083107e+53 1.216577e+53 -4.708015e+52) (7.483483e+23 3.782895e+23 -7.051309e+23) (0.000000e+00 0.000000e+00 0.000000e+00)) ((-2.134834e+54 3.377930e+54 -1.167691e+53) (-1.513691e+25 2.049571e+25 -8.602188e+23) (0.000000e+00 0.000000e+00 0.000000e+00))
870           	((1.628907e+54 8.865950e+53 -3.083960e+53) (2.081287e+24 1.054273e+24 -1.782865e+24) (0.000000e+00 0.000000e+00 0.000000e+00)) ((-1.529173e+55 2.604209e+55 -3.812683e+53) (-3.996978e+25 5.739010e+25 -2.736529e+24) (0.000000e+00 0.000000e+00 0.000000e+00))
880           	((1.119733e+55 5.974331e+54 -2.064712e+54) (5.264377e+24 2.504403e+24 -2.744216e+24) (0.000000e+00 0.000000e+00 0.000000e+00)) ((-1.102456e+56 1.844029e+56 -6.247809e+54) (-1.232449e+26 1.587857e+26 -1.125832e+25) (0.000000e+00 0.000000e+00 0.000000e+00))
890           	((9.083099e+55 4.317657e+55 -2.306955e+55) (1.527047e+25 6.758346e+24 -1.830151e+25) (0.000000e+00 0.000000e+00 0.000000e+00)) ((-7.313831e+56 1.464947e+57 6.258970e+54) (-2.715612e+26 4.488599e+26 -2.029269e+25) (0.000000e+00 0.000000e+00 0.000000e+00))
900           	((5.980288e+56 3.392246e+56 -1.555630e+56) (3.939438e+25 2.152842e+25 -4.563923e+25) (0.000000e+00 0.000000e+00 0.000000e+00)) ((-5.859696e+57 9.849287e+57 -8.592214e+55) (-8.110177e+26 1.109002e+27 -6.619494e+25) (0.000000e+00 0.000000e+00 0.000000e+00))
910           	((4.316309e+57 1.963248e+57 -1.133333e+57) (1.082247e+26 4.761802e+25 -1.316901e+26) (0.000000e+00 0.000000e+00 0.000000e+00)) ((-3.460458e+58 7.040679e+58 1.710016e+55) (-1.942715e+27 3.063515e+27 -9.766634e+25) (0.000000e+00 0.000000e+00 0.000000e+00))
920           	((2.620697e+58 1.497263e+58 -7.127708e+57) (2.595704e+26 1.264156e+26 -3.364566e+26) (0.000000e+00 0.000000e+00 0.000000e+00)) ((-2.601072e+59 4.314075e+59 -3.577150e+57) (-5.302182e+27 7.476006e+27 -3.874220e+26) (0.000000e+00 0.000000e+00 0.000000e+00))
930           	((1.837843e+59 1.072358e+59 -4.108372e+58) (6.742124e+26 3.595329e+26 -7.519321e+26) (0.000000e+00 0.000000e+00 0.000000e+00)) ((-1.874070e+60 2.976747e+60 -6.151774e+55) (-1.585887e+28 1.918642e+28 -1.119868e+27) (0.000000e+00 0.000000e+00 0.000000e+00))
940           	((1.270755e+60 5.672310e+59 -2.558412e+59) (1.773580e+27 7.413668e+26 -1.568818e+27) (0.000000e+00 0.000000e+00 0.000000e+00)) ((-1.034679e+61 2.022972e+61 -7.419613e+59) (-3.898229e+28 5.083120e+28 -3.959929e+27) (0.000000e+00 0.000000e+00 0.000000e+00))
950           	((8.156174e+60 4.329650e+60 -1.886426e+60) (4.715527e+27 2.073179e+27 -5.017029e+27) (0.000000e+00 0.000000e+00 0.000000e+00)) ((-7.579586e+61 1.313600e+62 -3.579366e+60) (-9.059261e+28 1.315348e+29 -7.441056e+27) (0.000000e+00 0.000000e+00 0.000000e+00))
960           	((5.957623e+61 3.267894e+61 -9.399959e+60) (1.201378e+28 6.102429e+27 -9.244760e+27) (0.000000e+00 0.000000e+00 0.000000e+00)) ((-5.770321e+62 9.408399e+62 -2.576533e+61) (-2.630640e+29 3.376235e+29 -1.831829e+28) (0.000000e+00 0.000000e+00 0.000000e+00))
970           	((4.606748e+62 2.681716e+62 -1.118581e+62) (3.451908e+28 1.678360e+28 -3.020161e+28) (0.000000e+00 0.000000e+00 0.000000e+00)) ((-4.663134e+63 7.405615e+63 -1.402883e+62) (-7.175674e+29 9.782825e+29 -5.859571e+28) (0.000000e+00 0.000000e+00 0.000000e+00))
980           	((3.275429e+63 1.773101e+63 -1.018356e+63) (8.753996e+28 5.105185e+28 -1.305474e+29) (0.000000e+00 0.000000e+00 0.000000e+00)) ((-3.073407e+64 5.354395e+64 -1.408797e+63) (-1.834346e+30 2.492281e+30 -1.528932e+29) (0.000000e+00 0.000000e+00 0.000000e+00))
990           	((1.904315e+64 1.037835e+64 -4.220564e+63) (2.263938e+29 1.123110e+29 -2.916044e+29) (0.000000e+00 0.000000e+00 0.000000e+00)) ((-1.776500e+65 3.039024e+65 -8.688779e+63) (-4.292671e+30 6.207907e+30 -2.575246e+29) (0.000000e+00 0.000000e+00 0.000000e+00))
1000          	((1.422807e+65 8.665546e+64 -2.615904e+64) (5.926423e+29 3.118889e+29 -4.497930e+29) (0.000000e+00 0.000000e+00 0.000000e+00)) ((-1.492088e+66 2.266150e+66 -1.195829e+65) (-1.301202e+31 1.592590e+31 -1.384065e+30) (0.000000e+00 0.000000e+00 0.000000e+00))
1010          	((1.261540e+66 4.994334e+65 -3.238816e+65) (1.738338e+30 7.965280e+29 -2.154062e+30) (0.000000e+00 0.000000e+00 0.000000e+00)) ((-8.762573e+66 2.003031e+67 -7.356879e+65) (-3.148217e+31 5.065366e+31 -3.427496e+30) (0.000000e+00 0.000000e+00 0.000000e+00))
1020          	((7.690607e+66 3.869608e+66 -1.318050e+66) (4.741177e+30 2.062377e+30 -3.862095e+30) (0.000000e+00 0.000000e+00 0.000000e+00)) ((-6.547932e+67 1.211307e+68 -7.415952e+65) (-7.709286e+31 1.247985e+32 -5.112439e+30) (0.000000e+00 0.000000e+00 0.000000e+00))
1030          	((5.065936e+67 2.896814e+67 -1.137678e+67) (1.129543e+31 5.536386e+30 -1.022605e+31) (0.000000e+00 0.000000e+00 0.000000e+00)) ((-5.123219e+68 8.189174e+68 -2.961048e+67) (-2.500817e+32 3.286730e+32 -1.951083e+31) (0.000000e+00 0.000000e+00 0.000000e+00))
1040          	((3.537208e+68 1.889324e+68 -4.596939e+67) (3.081674e+31 1.559293e+31 -2.030852e+31) (0.000000e+00 0.000000e+00 0.000000e+00)) ((-3.198608e+69 5.548301e+69 3.425640e+67) (-5.741734e+32 8.211868e+32 -4.671172e+31) (0.000000e+00 0.000000e+00 0.000000e+00))
1050          	((2.815781e+69 1.673420e+69 -7.398088e+68) (8.420649e+31 4.586479e+31 -7.780992e+31) (0.000000e+00 0.000000e+00 0.000000e+00)) ((-2.890803e+70 4.573709e+70 -1.052667e+69) (-1.748215e+33 2.319252e+33 -1.669943e+32) (0.000000e+00 0.000000e+00 0.000000e+00))
1060          	((1.665071e+70 8.325748e+69 -3.440013e+69) (2.090881e+32 1.025688e+32 -2.477698e+32) (0.000000e+00 0.000000e+00 0.000000e+00)) ((-1.409679e+71 2.642050e+71 -1.377189e+69) (-3.821942e+33 5.962072e+33 -1.827604e+32) (0.000000e+00 0.000000e+00 0.000000e+00))
1070          	((1.243164e+71 6.539198e+70 -1.506551e+70) (5.475528e+32 2.513538e+32 -2.654280e+32) (0.000000e+00 0.000000e+00 0.000000e+00)) ((-1.168408e+72 1.993643e+72 -1.551866e+71) (-1.203019e+34 1.624036e+34 -1.156566e+33) (0.000000e+00 0.000000e+00 0.000000e+00))
1080          	((9.566333e+71 5.085392e+71 -1.963664e+71) (1.497514e+33 7.214014e+32 -1.265346e+33) (0.000000e+00 0.000000e+00 0.000000e+00)) ((-8.869960e+72 1.532795e+73 -7.109119e+71) (-3.344886e+34 4.702899e+34 -3.504160e+33) (0.000000e+00 0.000000e+00 0.000000e+00))
1090          	((6.232007e+72 3.823032e+72 -1.272731e+72) (3.992785e+33 2.109092e+33 -3.276504e+33) (0.000000e+00 0.000000e+00 0.000000e+00)) ((-6.657320e+73 1.011755e+74 -3.790658e+72) (-8.829407e+34 1.165374e+35 -7.151304e+33) (0.000000e+00 0.000000e+00 0.000000e+00))