/*--------------------------------*- C++ -*----------------------------------*\
  =========                 |
  \\      /  F ield         | OpenFOAM: The Open Source CFD Toolbox
   \\    /   O peration     | Website:  https://openfoam.org
    \\  /    A nd           | Version:  8
     \\/     M anipulation  |
\*---------------------------------------------------------------------------*/
FoamFile
{
    version     2.0;
    format      ascii;
    class       volScalarField;
    location    "0.12";
    object      p;
}
// * * * * * * * * * * * * * * * * * * * * * * * * * * * * * * * * * * * * * //

dimensions      [0 2 -2 0 0 0 0];

internalField   nonuniform List<scalar> 
12225
(
1.87571
1.39259
1.33824
1.33265
1.30941
1.2865
1.26605
1.24634
1.2268
1.20726
1.18747
1.16718
1.14609
1.12382
1.09982
1.07302
1.04204
0.996289
1.79603
1.40337
1.34336
1.3351
1.31089
1.28736
1.26665
1.24674
1.22704
1.20735
1.18743
1.167
1.14577
1.12332
1.09911
1.07214
1.0411
1.00094
1.71906
1.42017
1.3505
1.33797
1.31288
1.28856
1.26748
1.24735
1.22745
1.20761
1.18755
1.16701
1.14566
1.12312
1.09888
1.07211
1.04227
1.00858
1.66056
1.43735
1.35855
1.3407
1.31527
1.29015
1.2686
1.24825
1.22819
1.20822
1.18809
1.16751
1.14619
1.12377
1.09988
1.07404
1.04652
1.01848
1.61413
1.44954
1.36704
1.34366
1.31818
1.29241
1.27026
1.24966
1.22946
1.2094
1.18926
1.16876
1.14763
1.12561
1.10248
1.07815
1.05346
1.03016
1.57537
1.45544
1.37516
1.34699
1.32159
1.29546
1.27268
1.25181
1.23148
1.21139
1.19131
1.17102
1.15027
1.12891
1.1069
1.08444
1.06265
1.04326
1.54304
1.45623
1.3821
1.35047
1.32525
1.29919
1.27592
1.25479
1.23441
1.21436
1.19446
1.1745
1.15433
1.13387
1.11324
1.09282
1.07376
1.05749
1.51641
1.45343
1.38738
1.3538
1.32884
1.3033
1.27983
1.25856
1.23824
1.21836
1.19875
1.17929
1.15986
1.14049
1.12138
1.103
1.08636
1.07253
1.49464
1.44835
1.39087
1.3568
1.33216
1.30745
1.28415
1.26292
1.24281
1.22324
1.20408
1.18526
1.16672
1.14855
1.131
1.11453
1.09995
1.08802
1.47691
1.44207
1.39271
1.35936
1.33514
1.31142
1.28859
1.2676
1.24785
1.22876
1.2102
1.19213
1.17458
1.15766
1.14162
1.12686
1.11399
1.10352
1.46249
1.43541
1.39321
1.36146
1.33781
1.3151
1.29297
1.27242
1.25314
1.23465
1.21679
1.19957
1.18305
1.16736
1.15272
1.13946
1.12799
1.11865
1.45175
1.42945
1.39276
1.36296
1.34002
1.31825
1.29689
1.27686
1.25811
1.24023
1.22307
1.20667
1.1911
1.17647
1.16299
1.1509
1.14047
1.13194
1.44298
1.42397
1.3919
1.36415
1.34203
1.32118
1.30065
1.28122
1.26303
1.24579
1.22936
1.21377
1.1991
1.18547
1.17302
1.16193
1.15238
1.14452
1.435
1.41857
1.39067
1.36522
1.34417
1.32437
1.30482
1.28615
1.26865
1.25216
1.23656
1.22187
1.20817
1.19556
1.18414
1.17402
1.16529
1.15805
1.42825
1.41377
1.38932
1.36625
1.34653
1.32787
1.30941
1.29165
1.27498
1.25935
1.24466
1.23093
1.21823
1.20663
1.19619
1.18698
1.17901
1.17232
1.42325
1.41017
1.38837
1.36752
1.34926
1.33181
1.31449
1.29775
1.28201
1.26732
1.2536
1.24086
1.22915
1.21852
1.209
1.2006
1.1933
1.18711
1.42067
1.40853
1.38859
1.36952
1.35264
1.33638
1.32017
1.30447
1.28973
1.276
1.26325
1.25149
1.24073
1.231
1.2223
1.21462
1.20791
1.20215
1.42146
1.40985
1.39096
1.37301
1.35714
1.34183
1.32657
1.31182
1.298
1.2852
1.27337
1.26251
1.25262
1.24369
1.23572
1.22866
1.22246
1.21709
1.42716
1.4156
1.39678
1.37893
1.36334
1.3485
1.33384
1.31976
1.30666
1.29463
1.28359
1.2735
1.26435
1.25611
1.24874
1.24219
1.23641
1.23135
1.43802
1.42568
1.40531
1.38603
1.36965
1.35454
1.33987
1.32595
1.31318
1.30159
1.29104
1.28147
1.27282
1.26506
1.25813
1.25196
1.2465
1.24168
1.45084
1.43707
1.41383
1.39208
1.37444
1.35878
1.34381
1.32979
1.31715
1.30582
1.29561
1.2864
1.27812
1.27072
1.26412
1.25825
1.25304
1.24843
1.46677
1.45025
1.4221
1.39687
1.37789
1.36165
1.34623
1.33205
1.31953
1.30847
1.29858
1.28969
1.28176
1.27469
1.26839
1.26279
1.25781
1.2534
1.48645
1.46482
1.42899
1.39979
1.37991
1.36314
1.34723
1.33298
1.3207
1.30996
1.30038
1.29182
1.2842
1.27742
1.27138
1.26599
1.26118
1.2569
1.51105
1.47997
1.43307
1.40045
1.38052
1.36329
1.34697
1.33287
1.32095
1.31053
1.30125
1.29298
1.28562
1.27906
1.2732
1.26794
1.26323
1.25903
1.54212
1.49422
1.43314
1.399
1.37988
1.36215
1.34566
1.33195
1.32044
1.31033
1.30131
1.29329
1.28614
1.27974
1.27399
1.26882
1.26416
1.26001
1.58129
1.50472
1.42855
1.39612
1.3781
1.35986
1.34363
1.33052
1.31943
1.30959
1.30082
1.29301
1.28601
1.27973
1.27407
1.26896
1.26435
1.26021
1.63052
1.50659
1.41924
1.3925
1.37542
1.35699
1.34146
1.32899
1.31824
1.30865
1.30009
1.29244
1.28556
1.27936
1.27376
1.2687
1.26411
1.25999
1.69589
1.49693
1.40653
1.38845
1.37223
1.35419
1.33954
1.32759
1.3171
1.3077
1.29929
1.29174
1.28494
1.2788
1.27325
1.26822
1.26366
1.25955
1.78776
1.48266
1.39394
1.38389
1.36887
1.35182
1.33792
1.32629
1.31598
1.30674
1.29844
1.29097
1.28423
1.27814
1.27262
1.26763
1.26309
1.259
1.88555
1.47449
1.38534
1.38007
1.36629
1.35019
1.33671
1.32526
1.31509
1.30596
1.29774
1.29033
1.28364
1.27758
1.27209
1.26712
1.2626
1.25852
1.14089
1.14074
1.14066
1.14074
1.14102
1.14148
1.14215
1.14302
1.1441
1.14539
1.14689
1.14862
1.15058
1.15276
1.15516
1.15779
1.16065
1.16371
1.16699
1.17046
1.17411
1.17792
1.18187
1.18593
1.19008
1.19428
1.19851
1.20273
1.20691
1.21101
1.215
1.21884
1.22251
1.22598
1.22921
1.23219
1.2349
1.23733
1.23945
1.24126
1.24275
1.24393
1.24479
1.24534
1.24558
1.24553
1.24518
1.24456
1.24367
1.24254
1.24116
1.23956
1.23775
1.23575
1.23356
1.2312
1.22869
1.22603
1.22324
1.22033
1.21731
1.21418
1.21096
1.20766
1.20427
1.20082
1.1973
1.19372
1.19009
1.18641
1.18269
1.17892
1.17511
1.17127
1.16739
1.16349
1.15955
1.15559
1.1516
1.14759
1.14355
1.13949
1.1354
1.1313
1.12717
1.12302
1.11885
1.11465
1.11044
1.1062
1.10194
1.09766
1.09335
1.08902
1.08467
1.0803
1.0759
1.07147
1.06703
1.06255
1.05805
1.05352
1.04897
1.04438
1.03977
1.03513
1.03047
1.02577
1.02104
1.01628
1.01149
1.00666
1.00181
0.99692
0.991997
0.98704
0.982048
0.977021
0.971958
0.966859
0.961723
0.95655
0.951339
0.94609
0.940802
0.935475
0.930109
0.924702
0.919255
0.913767
0.908238
0.902666
0.897052
0.891395
0.885694
0.87995
0.874162
0.868328
0.86245
0.856526
0.850557
0.844541
0.838479
0.83237
0.826213
0.820009
0.813758
0.807458
0.801109
0.794712
0.788265
0.781768
0.775222
0.768626
0.761979
0.755281
0.748533
0.741733
0.734883
0.727981
0.721029
0.714026
0.706972
0.699869
0.692718
0.685519
0.678276
0.670989
0.663663
0.656302
0.648911
0.6415
0.634078
0.626661
0.619267
0.611923
0.604675
0.59756
0.590812
0.5838
1.14099
1.14079
1.1407
1.14079
1.14106
1.14152
1.14216
1.143
1.14404
1.14529
1.14675
1.14842
1.15032
1.15245
1.15481
1.15739
1.1602
1.16323
1.16647
1.16991
1.17353
1.17732
1.18125
1.18531
1.18945
1.19366
1.19789
1.20212
1.20631
1.21042
1.21443
1.21829
1.22197
1.22546
1.22871
1.23171
1.23443
1.23687
1.239
1.24082
1.24233
1.24352
1.24439
1.24495
1.24521
1.24516
1.24483
1.24422
1.24335
1.24222
1.24086
1.23928
1.23748
1.23549
1.23331
1.23097
1.22847
1.22582
1.22304
1.22014
1.21713
1.21402
1.21081
1.20751
1.20414
1.2007
1.19719
1.19362
1.18999
1.18632
1.1826
1.17884
1.17504
1.1712
1.16733
1.16343
1.1595
1.15554
1.15156
1.14755
1.14351
1.13945
1.13537
1.13127
1.12714
1.12299
1.11882
1.11463
1.11042
1.10618
1.10192
1.09764
1.09334
1.08901
1.08466
1.08029
1.07589
1.07147
1.06702
1.06254
1.05804
1.05352
1.04896
1.04438
1.03977
1.03513
1.03046
1.02576
1.02104
1.01628
1.01149
1.00666
1.00181
0.996918
0.991995
0.987038
0.982047
0.97702
0.971957
0.966858
0.961722
0.956549
0.951338
0.946089
0.940801
0.935474
0.930108
0.924702
0.919255
0.913767
0.908237
0.902666
0.897052
0.891394
0.885694
0.87995
0.874161
0.868328
0.86245
0.856526
0.850556
0.84454
0.838478
0.832369
0.826213
0.820009
0.813757
0.807457
0.801109
0.794711
0.788264
0.781768
0.775222
0.768625
0.761978
0.755281
0.748532
0.741733
0.734882
0.727981
0.721029
0.714026
0.706972
0.69987
0.692719
0.68552
0.678277
0.670991
0.663665
0.656305
0.648916
0.641506
0.634086
0.626671
0.619281
0.611941
0.6047
0.597585
0.590828
0.583735
1.14027
1.14004
1.13992
1.13999
1.14025
1.14069
1.14131
1.14212
1.14313
1.14434
1.14576
1.14741
1.14928
1.15138
1.15372
1.15629
1.15909
1.16212
1.16537
1.16883
1.17249
1.17631
1.1803
1.18441
1.18861
1.19288
1.19719
1.20148
1.20574
1.20992
1.21399
1.21791
1.22165
1.22518
1.22847
1.2315
1.23426
1.23671
1.23886
1.2407
1.24221
1.24341
1.24428
1.24484
1.24509
1.24504
1.2447
1.24409
1.24321
1.24207
1.24071
1.23912
1.23732
1.23532
1.23315
1.2308
1.2283
1.22566
1.22288
1.21998
1.21697
1.21386
1.21066
1.20737
1.204
1.20056
1.19706
1.1935
1.18988
1.18621
1.1825
1.17874
1.17494
1.17111
1.16725
1.16335
1.15943
1.15547
1.15149
1.14748
1.14345
1.1394
1.13532
1.13122
1.1271
1.12295
1.11879
1.1146
1.11039
1.10615
1.1019
1.09762
1.09332
1.08899
1.08464
1.08027
1.07587
1.07145
1.067
1.06253
1.05803
1.0535
1.04895
1.04437
1.03976
1.03512
1.03045
1.02576
1.02103
1.01627
1.01148
1.00666
1.0018
0.996913
0.991991
0.987034
0.982043
0.977016
0.971954
0.966855
0.961719
0.956546
0.951335
0.946087
0.940799
0.935472
0.930106
0.9247
0.919253
0.913765
0.908236
0.902664
0.89705
0.891393
0.885693
0.879949
0.87416
0.868327
0.862449
0.856525
0.850555
0.844539
0.838477
0.832368
0.826212
0.820008
0.813756
0.807456
0.801107
0.79471
0.788263
0.781767
0.77522
0.768624
0.761977
0.75528
0.748531
0.741732
0.734881
0.727979
0.721027
0.714024
0.70697
0.699868
0.692716
0.685518
0.678274
0.670987
0.663661
0.6563
0.64891
0.641499
0.634077
0.626659
0.619265
0.611919
0.604666
0.597518
0.590697
0.583407
1.13856
1.13832
1.13818
1.13823
1.13848
1.1389
1.1395
1.14029
1.14128
1.14247
1.14388
1.14551
1.14737
1.14948
1.15182
1.15442
1.15725
1.16033
1.16365
1.16718
1.17092
1.17485
1.17894
1.18317
1.1875
1.1919
1.19633
1.20076
1.20514
1.20944
1.21362
1.21764
1.22147
1.22507
1.22843
1.23152
1.23431
1.2368
1.23896
1.24081
1.24232
1.24351
1.24437
1.24492
1.24515
1.24508
1.24472
1.24408
1.24318
1.24202
1.24064
1.23903
1.23721
1.2352
1.23301
1.23065
1.22815
1.22549
1.22271
1.21981
1.2168
1.21369
1.21049
1.2072
1.20383
1.2004
1.1969
1.19334
1.18972
1.18606
1.18235
1.1786
1.17481
1.17099
1.16713
1.16324
1.15932
1.15537
1.15139
1.14739
1.14337
1.13932
1.13524
1.13115
1.12703
1.12289
1.11873
1.11454
1.11033
1.1061
1.10185
1.09757
1.09328
1.08895
1.08461
1.08024
1.07584
1.07142
1.06698
1.06251
1.05801
1.05348
1.04893
1.04435
1.03974
1.03511
1.03044
1.02574
1.02102
1.01626
1.01147
1.00665
1.00179
0.996905
0.991984
0.987028
0.982037
0.97701
0.971948
0.96685
0.961714
0.956542
0.951331
0.946083
0.940796
0.935469
0.930103
0.924697
0.919251
0.913763
0.908234
0.902662
0.897048
0.891391
0.885691
0.879947
0.874158
0.868325
0.862447
0.856523
0.850554
0.844538
0.838475
0.832366
0.82621
0.820006
0.813754
0.807454
0.801106
0.794708
0.788261
0.781765
0.775219
0.768622
0.761975
0.755277
0.748529
0.741729
0.734878
0.727976
0.721023
0.71402
0.706966
0.699862
0.69271
0.68551
0.678264
0.670975
0.663647
0.656282
0.648888
0.64147
0.634041
0.626611
0.619201
0.611829
0.604536
0.597317
0.590351
0.582856
1.13592
1.13566
1.1355
1.13555
1.13578
1.13619
1.13678
1.13755
1.13852
1.1397
1.1411
1.14274
1.14461
1.14673
1.14911
1.15174
1.15464
1.1578
1.16121
1.16486
1.16873
1.17281
1.17706
1.18146
1.18597
1.19055
1.19517
1.19978
1.20433
1.2088
1.21313
1.21729
1.22124
1.22495
1.22839
1.23155
1.23439
1.23692
1.23911
1.24097
1.24248
1.24366
1.24451
1.24503
1.24523
1.24513
1.24474
1.24407
1.24314
1.24196
1.24054
1.23891
1.23707
1.23504
1.23283
1.23046
1.22794
1.22528
1.22249
1.21958
1.21657
1.21346
1.21025
1.20697
1.2036
1.20017
1.19668
1.19312
1.18952
1.18586
1.18216
1.17842
1.17463
1.17082
1.16697
1.16308
1.15917
1.15523
1.15126
1.14727
1.14325
1.1392
1.13514
1.13105
1.12694
1.1228
1.11864
1.11446
1.11026
1.10603
1.10179
1.09751
1.09322
1.0889
1.08456
1.08019
1.0758
1.07138
1.06694
1.06247
1.05798
1.05345
1.0489
1.04433
1.03972
1.03509
1.03042
1.02573
1.021
1.01624
1.01146
1.00663
1.00178
0.996894
0.991973
0.987018
0.982028
0.977002
0.971941
0.966843
0.961708
0.956536
0.951326
0.946078
0.940791
0.935465
0.9301
0.924694
0.919247
0.91376
0.908231
0.90266
0.897046
0.891389
0.885689
0.879945
0.874156
0.868323
0.862445
0.856521
0.850552
0.844536
0.838473
0.832364
0.826208
0.820004
0.813752
0.807452
0.801104
0.794706
0.788259
0.781763
0.775216
0.768619
0.761972
0.755274
0.748525
0.741725
0.734874
0.727971
0.721018
0.714013
0.706958
0.699853
0.692699
0.685497
0.678248
0.670956
0.663622
0.656251
0.648849
0.641421
0.633977
0.626527
0.619089
0.611676
0.604319
0.596999
0.589844
0.582167
1.13233
1.13205
1.13188
1.13191
1.13213
1.13252
1.1331
1.13386
1.13482
1.13599
1.13738
1.13901
1.14089
1.14304
1.14545
1.14815
1.15112
1.15438
1.15792
1.16171
1.16576
1.17003
1.17449
1.17912
1.18387
1.18869
1.19356
1.1984
1.20319
1.20788
1.21241
1.21675
1.22086
1.22471
1.22827
1.23152
1.23443
1.23701
1.23924
1.24111
1.24263
1.2438
1.24463
1.24513
1.2453
1.24517
1.24475
1.24404
1.24307
1.24186
1.24041
1.23875
1.23688
1.23483
1.2326
1.23021
1.22768
1.225
1.22221
1.21929
1.21628
1.21316
1.20996
1.20667
1.20332
1.19989
1.1964
1.19285
1.18925
1.18561
1.18191
1.17818
1.17441
1.1706
1.16676
1.16288
1.15898
1.15505
1.15109
1.1471
1.14309
1.13906
1.135
1.13092
1.12681
1.12269
1.11854
1.11436
1.11017
1.10595
1.1017
1.09744
1.09315
1.08883
1.0845
1.08013
1.07575
1.07133
1.06689
1.06243
1.05794
1.05342
1.04887
1.04429
1.03969
1.03506
1.03039
1.0257
1.02098
1.01622
1.01144
1.00662
1.00177
0.99688
0.99196
0.987006
0.982017
0.976992
0.971931
0.966834
0.9617
0.956529
0.951319
0.946072
0.940785
0.93546
0.930095
0.924689
0.919243
0.913756
0.908227
0.902656
0.897043
0.891386
0.885686
0.879942
0.874154
0.86832
0.862442
0.856519
0.850549
0.844533
0.838471
0.832362
0.826206
0.820002
0.81375
0.80745
0.801101
0.794703
0.788256
0.78176
0.775213
0.768616
0.761969
0.755271
0.748521
0.741721
0.734869
0.727965
0.721011
0.714005
0.706948
0.699841
0.692684
0.685479
0.678226
0.670929
0.663588
0.656209
0.648795
0.641352
0.633889
0.626412
0.618936
0.61147
0.604032
0.596595
0.58924
0.581401
1.12779
1.12749
1.12729
1.12729
1.12749
1.12787
1.12842
1.12915
1.13008
1.13123
1.1326
1.13421
1.13609
1.13825
1.1407
1.14345
1.14651
1.14988
1.15357
1.15755
1.16181
1.16632
1.17105
1.17597
1.18102
1.18616
1.19134
1.1965
1.20159
1.20655
1.21135
1.21592
1.22024
1.22427
1.22798
1.23135
1.23437
1.23702
1.23929
1.24119
1.24272
1.24389
1.24471
1.24518
1.24533
1.24517
1.24471
1.24397
1.24296
1.24171
1.24023
1.23854
1.23664
1.23457
1.23232
1.22991
1.22736
1.22468
1.22187
1.21895
1.21593
1.21281
1.20961
1.20633
1.20297
1.19955
1.19607
1.19253
1.18894
1.1853
1.18162
1.1779
1.17414
1.17034
1.16651
1.16265
1.15875
1.15483
1.15089
1.14691
1.14291
1.13889
1.13484
1.13077
1.12667
1.12255
1.11841
1.11424
1.11005
1.10584
1.1016
1.09734
1.09306
1.08875
1.08442
1.08006
1.07568
1.07127
1.06684
1.06237
1.05789
1.05337
1.04883
1.04426
1.03965
1.03502
1.03036
1.02567
1.02095
1.0162
1.01141
1.0066
1.00175
0.996862
0.991944
0.986991
0.982003
0.976979
0.971919
0.966823
0.96169
0.956519
0.951311
0.946064
0.940778
0.935454
0.930089
0.924684
0.919238
0.913751
0.908223
0.902652
0.897039
0.891382
0.885682
0.879939
0.87415
0.868317
0.862439
0.856516
0.850546
0.844531
0.838468
0.832359
0.826203
0.819999
0.813747
0.807447
0.801098
0.794701
0.788253
0.781757
0.77521
0.768613
0.761965
0.755266
0.748516
0.741715
0.734862
0.727958
0.721002
0.713994
0.706936
0.699826
0.692666
0.685457
0.678199
0.670895
0.663547
0.656157
0.648729
0.641269
0.633781
0.626272
0.618751
0.611223
0.603697
0.596137
0.588588
0.580601
1.12225
1.12192
1.12168
1.12165
1.12182
1.12215
1.12265
1.12334
1.12421
1.12529
1.12661
1.12818
1.13002
1.13216
1.13462
1.13742
1.14056
1.14406
1.14791
1.1521
1.15662
1.16143
1.1665
1.17179
1.17723
1.18277
1.18835
1.19391
1.19938
1.20471
1.20984
1.21471
1.2193
1.22356
1.22747
1.231
1.23414
1.23688
1.23923
1.24117
1.24273
1.24391
1.24472
1.24517
1.2453
1.2451
1.24461
1.24384
1.2428
1.24151
1.24
1.23828
1.23635
1.23425
1.23198
1.22956
1.22699
1.2243
1.22148
1.21856
1.21553
1.21242
1.20922
1.20594
1.20259
1.19917
1.1957
1.19217
1.18859
1.18496
1.18129
1.17758
1.17383
1.17005
1.16623
1.16238
1.1585
1.15459
1.15065
1.14669
1.1427
1.13869
1.13465
1.13059
1.1265
1.12239
1.11826
1.1141
1.10992
1.10572
1.10149
1.09724
1.09296
1.08866
1.08433
1.07998
1.0756
1.0712
1.06677
1.06231
1.05783
1.05332
1.04878
1.04421
1.03961
1.03498
1.03033
1.02564
1.02092
1.01617
1.01139
1.00657
1.00172
0.996841
0.991924
0.986973
0.981986
0.976964
0.971906
0.966811
0.961678
0.956509
0.951301
0.946055
0.94077
0.935446
0.930082
0.924678
0.919232
0.913746
0.908218
0.902647
0.897034
0.891378
0.885678
0.879935
0.874147
0.868314
0.862436
0.856512
0.850543
0.844527
0.838465
0.832356
0.8262
0.819996
0.813744
0.807444
0.801095
0.794697
0.78825
0.781753
0.775206
0.768608
0.76196
0.755261
0.748511
0.741709
0.734855
0.727949
0.720992
0.713983
0.706922
0.699809
0.692645
0.685432
0.678168
0.670857
0.663499
0.656097
0.648653
0.641172
0.633657
0.626113
0.618543
0.610949
0.60333
0.595649
0.58792
0.579796
1.11566
1.11529
1.11501
1.11494
1.11504
1.11531
1.11572
1.11631
1.11708
1.11805
1.11925
1.12071
1.12246
1.12454
1.12696
1.12977
1.13297
1.13659
1.14063
1.14507
1.1499
1.15508
1.16058
1.16632
1.17226
1.17831
1.18441
1.19047
1.19643
1.20222
1.20777
1.21303
1.21795
1.22251
1.22666
1.23039
1.23369
1.23656
1.239
1.24101
1.2426
1.2438
1.24461
1.24507
1.24517
1.24495
1.24443
1.24363
1.24256
1.24124
1.2397
1.23795
1.236
1.23388
1.23159
1.22915
1.22657
1.22387
1.22105
1.21812
1.21509
1.21198
1.20878
1.20551
1.20216
1.19876
1.19529
1.19177
1.1882
1.18459
1.18093
1.17723
1.17349
1.16972
1.16592
1.16208
1.15821
1.15432
1.15039
1.14644
1.14247
1.13847
1.13444
1.13039
1.12631
1.12221
1.11809
1.11394
1.10977
1.10558
1.10136
1.09711
1.09285
1.08855
1.08423
1.07989
1.07552
1.07112
1.06669
1.06224
1.05776
1.05326
1.04872
1.04416
1.03956
1.03494
1.03029
1.0256
1.02088
1.01614
1.01136
1.00654
1.0017
0.996817
0.991902
0.986953
0.981968
0.976947
0.97189
0.966796
0.961665
0.956496
0.95129
0.946045
0.940761
0.935437
0.930074
0.92467
0.919226
0.91374
0.908212
0.902642
0.897029
0.891373
0.885674
0.87993
0.874142
0.86831
0.862432
0.856509
0.850539
0.844524
0.838462
0.832353
0.826196
0.819992
0.81374
0.80744
0.801091
0.794693
0.788246
0.781749
0.775202
0.768604
0.761955
0.755256
0.748504
0.741702
0.734847
0.72794
0.720981
0.71397
0.706906
0.69979
0.692623
0.685404
0.678134
0.670814
0.663446
0.656031
0.64857
0.641067
0.633523
0.62594
0.61832
0.610658
0.602948
0.595151
0.58726
0.579011
1.10798
1.10758
1.10724
1.1071
1.10712
1.10726
1.10754
1.10796
1.10854
1.10932
1.11032
1.11159
1.11317
1.1151
1.11743
1.1202
1.12343
1.12716
1.13139
1.13612
1.14133
1.14697
1.153
1.15933
1.1659
1.1726
1.17935
1.18605
1.19262
1.19898
1.20506
1.21079
1.21613
1.22105
1.2255
1.22948
1.23298
1.23601
1.23856
1.24066
1.24231
1.24354
1.24438
1.24483
1.24493
1.2447
1.24415
1.24332
1.24223
1.24089
1.23932
1.23755
1.23558
1.23344
1.23114
1.22869
1.2261
1.22339
1.22056
1.21763
1.21461
1.21149
1.2083
1.20503
1.2017
1.1983
1.19485
1.19134
1.18778
1.18418
1.18053
1.17685
1.17313
1.16937
1.16558
1.16176
1.1579
1.15402
1.15011
1.14618
1.14221
1.13823
1.13421
1.13017
1.12611
1.12202
1.11791
1.11377
1.10961
1.10543
1.10122
1.09698
1.09272
1.08843
1.08412
1.07978
1.07542
1.07103
1.06661
1.06216
1.05769
1.05319
1.04866
1.0441
1.03951
1.03489
1.03024
1.02556
1.02085
1.0161
1.01132
1.00651
1.00167
0.99679
0.991877
0.98693
0.981947
0.976927
0.971872
0.96678
0.96165
0.956483
0.951277
0.946033
0.94075
0.935427
0.930065
0.924662
0.919218
0.913732
0.908205
0.902636
0.897023
0.891368
0.885669
0.879925
0.874138
0.868305
0.862428
0.856504
0.850535
0.84452
0.838458
0.832349
0.826192
0.819988
0.813737
0.807436
0.801087
0.794689
0.788242
0.781745
0.775197
0.768599
0.76195
0.755249
0.748498
0.741694
0.734838
0.72793
0.720969
0.713955
0.706889
0.69977
0.692598
0.685374
0.678097
0.670769
0.663389
0.65596
0.648482
0.640955
0.633381
0.625759
0.618087
0.610359
0.602561
0.594657
0.586622
0.578258
1.09921
1.09877
1.09838
1.09814
1.09802
1.09799
1.09805
1.09821
1.09851
1.09898
1.09966
1.10062
1.10191
1.10359
1.10573
1.10839
1.11161
1.11544
1.1199
1.12497
1.13065
1.13687
1.14357
1.15064
1.158
1.16552
1.17308
1.18057
1.1879
1.19496
1.20168
1.20798
1.21382
1.21916
1.22397
1.22825
1.23199
1.2352
1.23789
1.2401
1.24183
1.24311
1.24397
1.24444
1.24454
1.2443
1.24375
1.24291
1.2418
1.24044
1.23886
1.23707
1.23509
1.23293
1.23062
1.22816
1.22557
1.22285
1.22003
1.2171
1.21408
1.21097
1.20778
1.20452
1.2012
1.19781
1.19437
1.19088
1.18733
1.18374
1.18011
1.17644
1.17274
1.16899
1.16522
1.16141
1.15757
1.15371
1.14981
1.14589
1.14194
1.13797
1.13397
1.12994
1.12589
1.12181
1.11771
1.11359
1.10944
1.10526
1.10106
1.09684
1.09258
1.08831
1.084
1.07967
1.07532
1.07093
1.06652
1.06208
1.05761
1.05312
1.04859
1.04403
1.03945
1.03483
1.03019
1.02551
1.0208
1.01606
1.01129
1.00648
1.00164
0.996761
0.99185
0.986905
0.981923
0.976906
0.971852
0.966761
0.961633
0.956467
0.951263
0.94602
0.940738
0.935417
0.930055
0.924653
0.919209
0.913724
0.908198
0.902629
0.897017
0.891362
0.885663
0.87992
0.874132
0.8683
0.862423
0.856499
0.85053
0.844515
0.838453
0.832344
0.826188
0.819984
0.813732
0.807432
0.801083
0.794685
0.788237
0.78174
0.775192
0.768593
0.761944
0.755243
0.74849
0.741686
0.734829
0.727919
0.720956
0.713941
0.706871
0.699749
0.692572
0.685342
0.678058
0.670721
0.66333
0.655887
0.648389
0.640839
0.633234
0.625573
0.617852
0.610059
0.602179
0.594175
0.586016
0.577546
1.0894
1.08895
1.08849
1.08813
1.08781
1.08753
1.08727
1.08706
1.08694
1.08696
1.08718
1.08768
1.08854
1.08984
1.09169
1.09416
1.09733
1.10126
1.10597
1.11148
1.11774
1.12468
1.13223
1.14024
1.14858
1.1571
1.16565
1.1741
1.18233
1.19023
1.19769
1.20465
1.21106
1.21688
1.22209
1.2267
1.23071
1.23413
1.23699
1.23931
1.24113
1.24248
1.24338
1.24388
1.24399
1.24376
1.24321
1.24236
1.24124
1.23988
1.23829
1.23649
1.2345
1.23234
1.23002
1.22756
1.22497
1.22226
1.21944
1.21651
1.2135
1.2104
1.20722
1.20398
1.20066
1.19729
1.19386
1.19038
1.18686
1.18328
1.17967
1.17601
1.17232
1.1686
1.16484
1.16105
1.15722
1.15337
1.14949
1.14559
1.14165
1.13769
1.13371
1.12969
1.12566
1.12159
1.11751
1.11339
1.10925
1.10509
1.1009
1.09668
1.09244
1.08817
1.08388
1.07955
1.0752
1.07083
1.06642
1.06199
1.05753
1.05304
1.04852
1.04397
1.03939
1.03478
1.03013
1.02546
1.02075
1.01602
1.01125
1.00644
1.0016
0.996729
0.991821
0.986877
0.981898
0.976883
0.971831
0.966742
0.961615
0.956451
0.951248
0.946006
0.940725
0.935405
0.930044
0.924642
0.9192
0.913716
0.90819
0.902621
0.89701
0.891355
0.885656
0.879914
0.874126
0.868294
0.862417
0.856494
0.850525
0.84451
0.838448
0.832339
0.826183
0.81998
0.813728
0.807427
0.801078
0.79468
0.788232
0.781735
0.775186
0.768588
0.761938
0.755236
0.748483
0.741677
0.734819
0.727908
0.720943
0.713925
0.706853
0.699727
0.692545
0.68531
0.678019
0.670672
0.66327
0.655811
0.648296
0.640722
0.633087
0.625387
0.617617
0.609763
0.601807
0.593712
0.585444
0.576881
1.07872
1.07827
1.07775
1.07723
1.07667
1.07604
1.07535
1.07464
1.07396
1.07337
1.07297
1.07284
1.07311
1.0739
1.07535
1.07756
1.08064
1.08468
1.08971
1.09575
1.10275
1.1106
1.11919
1.12834
1.13786
1.14757
1.15729
1.16687
1.17613
1.18496
1.19325
1.20094
1.20796
1.2143
1.21994
1.22489
1.22918
1.23282
1.23585
1.23831
1.24022
1.24164
1.2426
1.24313
1.24328
1.24306
1.24252
1.24168
1.24056
1.2392
1.23761
1.23581
1.23382
1.23167
1.22935
1.2269
1.22431
1.22161
1.21879
1.21588
1.21288
1.20979
1.20663
1.20339
1.20009
1.19674
1.19332
1.18986
1.18635
1.18279
1.1792
1.17556
1.17189
1.16818
1.16444
1.16066
1.15686
1.15302
1.14916
1.14527
1.14135
1.1374
1.13343
1.12944
1.12541
1.12136
1.11729
1.11318
1.10906
1.1049
1.10072
1.09652
1.09229
1.08803
1.08374
1.07943
1.07509
1.07072
1.06632
1.06189
1.05744
1.05295
1.04844
1.04389
1.03932
1.03471
1.03008
1.02541
1.0207
1.01597
1.0112
1.0064
1.00156
0.996694
0.991789
0.986848
0.981871
0.976858
0.971808
0.96672
0.961595
0.956433
0.951231
0.945991
0.940711
0.935392
0.930032
0.924631
0.91919
0.913706
0.908181
0.902613
0.897002
0.891347
0.885649
0.879907
0.87412
0.868288
0.862411
0.856488
0.85052
0.844505
0.838443
0.832334
0.826178
0.819975
0.813723
0.807422
0.801073
0.794675
0.788227
0.781729
0.775181
0.768581
0.761931
0.755229
0.748475
0.741668
0.734809
0.727896
0.72093
0.713909
0.706834
0.699704
0.692518
0.685277
0.677978
0.670623
0.663209
0.655735
0.648201
0.640604
0.63294
0.625203
0.617386
0.609475
0.601449
0.593273
0.58491
0.576264
1.06746
1.06706
1.06649
1.0658
1.06493
1.06387
1.06265
1.06132
1.05993
1.05858
1.05739
1.05648
1.05602
1.05617
1.05711
1.059
1.06199
1.06618
1.07163
1.07834
1.08624
1.09518
1.105
1.11546
1.12634
1.13742
1.14845
1.15925
1.16963
1.17945
1.18861
1.19703
1.20468
1.21153
1.2176
1.2229
1.22745
1.23131
1.23451
1.2371
1.23912
1.24061
1.24163
1.24221
1.24238
1.2422
1.24167
1.24085
1.23975
1.2384
1.23682
1.23503
1.23305
1.23091
1.2286
1.22616
1.22358
1.22089
1.21809
1.21519
1.21221
1.20913
1.20599
1.20277
1.19949
1.19615
1.19276
1.18931
1.18582
1.18228
1.1787
1.17508
1.17143
1.16774
1.16402
1.16026
1.15647
1.15266
1.14881
1.14493
1.14103
1.1371
1.13315
1.12916
1.12515
1.12112
1.11706
1.11297
1.10885
1.10471
1.10054
1.09635
1.09212
1.08788
1.0836
1.07929
1.07496
1.0706
1.06621
1.06179
1.05734
1.05286
1.04836
1.04382
1.03925
1.03465
1.03001
1.02535
1.02065
1.01592
1.01116
1.00636
1.00152
0.996657
0.991755
0.986816
0.981842
0.976831
0.971783
0.966698
0.961575
0.956413
0.951213
0.945974
0.940696
0.935378
0.930019
0.924619
0.919178
0.913696
0.908171
0.902604
0.896993
0.891339
0.885642
0.8799
0.874113
0.868281
0.862405
0.856482
0.850514
0.844499
0.838437
0.832329
0.826173
0.819969
0.813717
0.807417
0.801068
0.79467
0.788221
0.781723
0.775175
0.768575
0.761924
0.755221
0.748467
0.741659
0.734798
0.727884
0.720916
0.713893
0.706815
0.699681
0.692491
0.685243
0.677938
0.670573
0.663148
0.65566
0.648108
0.640488
0.632796
0.625024
0.617163
0.609198
0.601108
0.59286
0.584415
0.575695
1.0561
1.05578
1.0552
1.05433
1.05314
1.05161
1.04978
1.04772
1.04552
1.04329
1.04118
1.03938
1.03807
1.03749
1.03788
1.03944
1.04236
1.04678
1.05276
1.06026
1.0692
1.07937
1.09055
1.10247
1.11483
1.12735
1.13974
1.15178
1.16327
1.17406
1.18404
1.19317
1.20139
1.20872
1.21517
1.22078
1.22558
1.22963
1.23298
1.23569
1.23781
1.23938
1.24046
1.24109
1.24131
1.24116
1.24067
1.23987
1.23879
1.23746
1.2359
1.23414
1.23218
1.23005
1.22777
1.22535
1.22279
1.22012
1.21734
1.21446
1.21149
1.20844
1.20531
1.20211
1.19885
1.19553
1.19216
1.18873
1.18526
1.18174
1.17819
1.17459
1.17095
1.16728
1.16358
1.15984
1.15607
1.15227
1.14844
1.14459
1.1407
1.13679
1.13285
1.12888
1.12489
1.12086
1.11682
1.11274
1.10864
1.10451
1.10035
1.09617
1.09196
1.08772
1.08345
1.07915
1.07483
1.07048
1.06609
1.06168
1.05724
1.05277
1.04827
1.04374
1.03917
1.03458
1.02995
1.02529
1.02059
1.01587
1.01111
1.00631
1.00148
0.996619
0.991719
0.986783
0.981811
0.976802
0.971757
0.966673
0.961552
0.956393
0.951194
0.945957
0.94068
0.935363
0.930005
0.924607
0.919167
0.913685
0.908161
0.902594
0.896984
0.891331
0.885633
0.879892
0.874105
0.868274
0.862398
0.856475
0.850507
0.844492
0.838431
0.832323
0.826167
0.819963
0.813712
0.807411
0.801062
0.794664
0.788215
0.781717
0.775168
0.768568
0.761917
0.755214
0.748458
0.74165
0.734788
0.727872
0.720902
0.713877
0.706796
0.699658
0.692464
0.68521
0.677898
0.670524
0.663088
0.655586
0.648017
0.640375
0.632656
0.624851
0.616949
0.608935
0.600788
0.592474
0.583958
0.575173
1.04486
1.04468
1.04414
1.04313
1.04162
1.03962
1.03717
1.03435
1.03127
1.02809
1.02499
1.0222
1.02
1.01866
1.01849
1.01974
1.02264
1.02735
1.03393
1.04235
1.05246
1.06402
1.07673
1.09022
1.10412
1.1181
1.13184
1.14507
1.15759
1.16925
1.17997
1.18968
1.19839
1.2061
1.21285
1.21869
1.22368
1.22788
1.23135
1.23416
1.23635
1.23799
1.23913
1.2398
1.24007
1.23995
1.2395
1.23874
1.23769
1.2364
1.23487
1.23313
1.2312
1.2291
1.22684
1.22444
1.22191
1.21926
1.21651
1.21365
1.21071
1.20768
1.20458
1.2014
1.19817
1.19487
1.19152
1.18812
1.18467
1.18117
1.17763
1.17406
1.17044
1.16679
1.16311
1.15939
1.15565
1.15187
1.14806
1.14422
1.14035
1.13646
1.13253
1.12858
1.1246
1.12059
1.11656
1.1125
1.10841
1.10429
1.10015
1.09598
1.09178
1.08755
1.08329
1.07901
1.07469
1.07035
1.06597
1.06157
1.05714
1.05267
1.04818
1.04365
1.03909
1.0345
1.02988
1.02522
1.02053
1.01581
1.01106
1.00626
1.00144
0.996577
0.991681
0.986748
0.981778
0.976772
0.971729
0.966648
0.961529
0.956371
0.951174
0.945939
0.940663
0.935347
0.929991
0.924593
0.919154
0.913673
0.90815
0.902584
0.896974
0.891321
0.885625
0.879883
0.874097
0.868267
0.86239
0.856468
0.8505
0.844486
0.838425
0.832316
0.826161
0.819957
0.813706
0.807405
0.801056
0.794658
0.78821
0.781711
0.775162
0.768562
0.76191
0.755206
0.74845
0.74164
0.734777
0.72786
0.720888
0.713861
0.706777
0.699636
0.692437
0.685178
0.677859
0.670477
0.66303
0.655515
0.647929
0.640267
0.632522
0.624686
0.616747
0.608688
0.600489
0.592118
0.583539
0.574698
1.03511
1.03511
1.0347
1.03367
1.03198
1.02963
1.02666
1.02317
1.0193
1.01524
1.01121
1.00751
1.00446
1.00242
1.00174
1.00275
1.00569
1.01077
1.01804
1.02746
1.0388
1.05175
1.06591
1.08084
1.09612
1.11134
1.12616
1.14031
1.15359
1.16586
1.17705
1.18713
1.19611
1.20403
1.21094
1.2169
1.22198
1.22625
1.22977
1.23263
1.23487
1.23655
1.23772
1.23844
1.23874
1.23866
1.23825
1.23752
1.23651
1.23525
1.23376
1.23205
1.23016
1.22809
1.22586
1.22349
1.22099
1.21837
1.21565
1.21282
1.2099
1.2069
1.20382
1.20067
1.19746
1.19419
1.19086
1.18749
1.18406
1.18059
1.17707
1.17352
1.16993
1.1663
1.16264
1.15894
1.15521
1.15145
1.14766
1.14384
1.14
1.13612
1.13221
1.12828
1.12431
1.12032
1.1163
1.11225
1.10818
1.10408
1.09994
1.09578
1.0916
1.08738
1.08313
1.07886
1.07455
1.07021
1.06585
1.06145
1.05703
1.05257
1.04808
1.04356
1.03901
1.03442
1.02981
1.02516
1.02047
1.01575
1.011
1.00621
1.00139
0.996535
0.991641
0.986711
0.981744
0.976741
0.9717
0.966621
0.961504
0.956348
0.951153
0.945919
0.940645
0.93533
0.929975
0.924579
0.91914
0.91366
0.908138
0.902572
0.896964
0.891311
0.885615
0.879874
0.874089
0.868258
0.862382
0.85646
0.850492
0.844478
0.838417
0.832309
0.826154
0.81995
0.813699
0.807399
0.80105
0.794651
0.788203
0.781704
0.775155
0.768554
0.761902
0.755198
0.748441