/*--------------------------------*- C++ -*----------------------------------*\
  =========                 |
  \\      /  F ield         | OpenFOAM: The Open Source CFD Toolbox
   \\    /   O peration     | Website:  https://openfoam.org
    \\  /    A nd           | Version:  8
     \\/     M anipulation  |
\*---------------------------------------------------------------------------*/
FoamFile
{
    version     2.0;
    format      ascii;
    class       surfaceScalarField;
    location    "0.12";
    object      phi;
}
// * * * * * * * * * * * * * * * * * * * * * * * * * * * * * * * * * * * * * //

dimensions      [0 3 -1 0 0 0 0];

internalField   nonuniform List<scalar> 
24170
(
1.16047e-07
1.72347e-07
5.76446e-08
5.84029e-08
4.29872e-08
1.46573e-08
3.75744e-08
5.41288e-09
3.45974e-08
2.97696e-09
3.26238e-08
1.97359e-09
3.13919e-08
1.23191e-09
3.07046e-08
6.87333e-10
3.04187e-08
2.8586e-10
3.0466e-08
-4.73098e-11
3.08187e-08
-3.52735e-10
3.14815e-08
-6.62712e-10
3.24917e-08
-1.01022e-09
3.39401e-08
-1.44838e-09
3.6041e-08
-2.10092e-09
3.93361e-08
-3.29513e-09
4.56546e-08
-6.31853e-09
-2.41122e-08
6.97668e-08
2.48546e-07
2.32894e-07
1.74859e-07
1.3209e-07
1.37284e-07
5.22321e-08
1.18249e-07
2.44474e-08
1.08004e-07
1.32228e-08
1.017e-07
8.27706e-09
9.76398e-08
5.29221e-09
9.51972e-08
3.12995e-09
9.39852e-08
1.49785e-09
9.3777e-08
1.60924e-10
9.44635e-08
-1.03928e-09
9.60277e-08
-2.22687e-09
9.85357e-08
-3.51821e-09
1.02171e-07
-5.08412e-09
1.07319e-07
-7.24849e-09
1.14832e-07
-1.08077e-08
1.26415e-07
-1.79017e-08
-3.95789e-08
1.41881e-07
3.32621e-07
2.31551e-07
2.8205e-07
1.82661e-07
2.37632e-07
9.66497e-08
2.0782e-07
5.42597e-08
1.89648e-07
3.13944e-08
1.78392e-07
1.95331e-08
1.71074e-07
1.26101e-08
1.66454e-07
7.74988e-09
1.63898e-07
4.0538e-09
1.63018e-07
1.04162e-09
1.63606e-07
-1.62786e-09
1.65591e-07
-4.21161e-09
1.69019e-07
-6.94592e-09
1.74075e-07
-1.01404e-08
1.81131e-07
-1.43042e-08
1.90839e-07
-2.05159e-08
2.0376e-07
-3.08225e-08
-5.2131e-08
2.16312e-07
3.86064e-07
2.00541e-07
3.66295e-07
2.0243e-07
3.31323e-07
1.31622e-07
2.99777e-07
8.58057e-08
2.76512e-07
5.46592e-08
2.60823e-07
3.52221e-08
2.5029e-07
2.3144e-08
2.43356e-07
1.46832e-08
2.39193e-07
8.21714e-09
2.37291e-07
2.94381e-09
2.37351e-07
-1.68821e-09
2.39232e-07
-6.09308e-09
2.42922e-07
-1.06358e-08
2.48531e-07
-1.57492e-08
2.5628e-07
-2.20533e-08
2.66405e-07
-3.0641e-08
2.78657e-07
-4.30737e-08
-6.29855e-08
2.89511e-07
4.20406e-07
1.60673e-07
4.25753e-07
1.97083e-07
4.08221e-07
1.49155e-07
3.84394e-07
1.09632e-07
3.62106e-07
7.69472e-08
3.44786e-07
5.25424e-08
3.32252e-07
3.56776e-08
3.23541e-07
2.33948e-08
3.17936e-07
1.38216e-08
3.14942e-07
5.93836e-09
3.14227e-07
-9.73014e-10
3.15601e-07
-7.46698e-09
3.18982e-07
-1.40169e-08
3.24369e-07
-2.1137e-08
3.31786e-07
-2.94694e-08
3.41093e-07
-3.99483e-08
3.51599e-07
-5.35802e-08
-7.19729e-08
3.60587e-07
4.45459e-07
1.23065e-07
4.65668e-07
1.76873e-07
4.64999e-07
1.49824e-07
4.53885e-07
1.20745e-07
4.38554e-07
9.22785e-08
4.23947e-07
6.71496e-08
4.12041e-07
4.75833e-08
4.03082e-07
3.23546e-08
3.96896e-07
2.00072e-08
3.93236e-07
9.5982e-09
3.91868e-07
3.95351e-10
3.92616e-07
-8.21543e-09
3.95361e-07
-1.67613e-08
4.00002e-07
-2.57787e-08
4.0639e-07
-3.58568e-08
4.14142e-07
-4.77005e-08
4.22404e-07
-6.18429e-08
-7.88058e-08
4.29237e-07
4.68154e-07
9.20346e-08
4.94179e-07
1.50848e-07
5.05022e-07
1.38981e-07
5.06104e-07
1.19663e-07
5.00532e-07
9.78507e-08
4.92234e-07
7.54476e-08
4.83984e-07
5.58339e-08
4.76992e-07
3.93465e-08
4.71744e-07
2.52546e-08
4.68406e-07
1.29366e-08
4.66971e-07
1.83052e-09
4.67369e-07
-8.61385e-09
4.69502e-07
-1.88938e-08
4.73223e-07
-2.95004e-08
4.78281e-07
-4.09139e-08
4.84186e-07
-5.36054e-08
4.90109e-07
-6.77666e-08
-8.34072e-08
4.94711e-07
4.92425e-07
6.81072e-08
5.18597e-07
1.24676e-07
5.35025e-07
1.22553e-07
5.44443e-07
1.10245e-07
5.47715e-07
9.45796e-08
5.46837e-07
7.63255e-08
5.44101e-07
5.85691e-08
5.4096e-07
4.24879e-08
5.38256e-07
2.79583e-08
5.36486e-07
1.47073e-08
5.35891e-07
2.42546e-09
5.36553e-07
-9.27657e-09
5.38447e-07
-2.07876e-08
5.41441e-07
-3.24942e-08
5.45261e-07
-4.4734e-08
5.49427e-07
-5.7771e-08
5.5324e-07
-7.15798e-08
-8.59643e-08
5.55797e-07
5.19989e-07
5.02419e-08
5.43699e-07
1.00965e-07
5.61552e-07
1.047e-07
5.75003e-07
9.67934e-08
5.84097e-07
8.54863e-08
5.8933e-07
7.10922e-08
5.92046e-07
5.58532e-08
5.93375e-07
4.11585e-08
5.94113e-07
2.7221e-08
5.94832e-07
1.39881e-08
5.959e-07
1.35743e-09
5.9751e-07
-1.0887e-08
5.99711e-07
-2.29877e-08
6.02414e-07
-3.51972e-08
6.05384e-07
-4.77048e-08
6.08221e-07
-6.06079e-08
6.104e-07
-7.37589e-08
-8.69002e-08
6.11336e-07
5.51345e-07
3.7059e-08
5.71841e-07
8.04699e-08
5.8904e-07
8.75005e-08
6.03522e-07
8.23118e-08
6.15335e-07
7.36728e-08
6.24291e-07
6.21361e-08
6.3097e-07
4.91751e-08
6.36045e-07
3.60832e-08
6.40046e-07
2.32196e-08
6.43409e-07
1.0625e-08
6.46471e-07
-1.70444e-09
6.49431e-07
-1.38473e-08
6.52367e-07
-2.59235e-08
6.55224e-07
-3.80541e-08
6.57823e-07
-5.03042e-08
6.59867e-07
-6.26514e-08
6.61e-07
-7.48922e-08
-8.67677e-08
6.60868e-07
5.86495e-07
2.73523e-08
6.03838e-07
6.31271e-08
6.19703e-07
7.16352e-08
6.33773e-07
6.8242e-08
6.46242e-07
6.12031e-08
6.56804e-07
5.15744e-08
6.65628e-07
4.0351e-08
6.73061e-07
2.86505e-08
6.7938e-07
1.69007e-08
6.84825e-07
5.17965e-09
6.89606e-07
-6.48539e-09
6.93859e-07
-1.80997e-08
6.97629e-07
-2.9694e-08
7.00869e-07
-4.12938e-08
7.03442e-07
-5.28776e-08
7.05143e-07
-6.43519e-08
7.05752e-07
-7.55013e-08
-8.60894e-08
7.05073e-07
5.25508e-07
2.11077e-08
5.37892e-07
5.07435e-08
5.50288e-07
5.92392e-08
5.61558e-07
5.69713e-08
5.71856e-07
5.09052e-08
5.81047e-07
4.23835e-08
5.89136e-07
3.22615e-08
5.96263e-07
2.15244e-08
6.02545e-07
1.0618e-08
6.08082e-07
-3.57444e-10
6.12959e-07
-1.1362e-08
6.17225e-07
-2.23656e-08
6.20881e-07
-3.33499e-08
6.23876e-07
-4.42887e-08
6.26114e-07
-5.51162e-08
6.27472e-07
-6.57094e-08
6.27835e-07
-7.58649e-08
-8.53767e-08
6.27123e-07
6.38581e-07
1.55156e-08
6.50659e-07
3.86657e-08
6.63484e-07
4.64145e-08
6.75566e-07
4.48892e-08
6.86889e-07
3.95824e-08
6.97271e-07
3.20009e-08
7.06651e-07
2.28816e-08
7.15116e-07
1.30592e-08
7.22742e-07
2.99261e-09
7.29567e-07
-7.18295e-09
7.35616e-07
-1.74103e-08
7.40884e-07
-2.76342e-08
7.45337e-07
-3.78029e-08
7.48905e-07
-4.78562e-08
7.51492e-07
-5.77037e-08
7.52998e-07
-6.72148e-08
7.53346e-07
-7.62135e-08
-8.45315e-08
7.52501e-07
7.76519e-07
1.06195e-08
7.87938e-07
2.72461e-08
8.00926e-07
3.34268e-08
8.13648e-07
3.21672e-08
8.25837e-07
2.73934e-08
8.37241e-07
2.05966e-08
8.47709e-07
1.24137e-08
8.57263e-07
3.50579e-09
8.65947e-07
-5.69215e-09
8.73769e-07
-1.50049e-08
8.80708e-07
-2.43495e-08
8.86726e-07
-3.36513e-08
8.91759e-07
-4.28366e-08
8.95729e-07
-5.18258e-08
8.98547e-07
-6.05216e-08
9.00136e-07
-6.88039e-08
9.00455e-07
-7.65329e-08
-8.35842e-08
8.99508e-07
9.44845e-07
6.39239e-09
9.55375e-07
1.67164e-08
9.68274e-07
2.05277e-08
9.81475e-07
1.89662e-08
9.94401e-07
1.44677e-08
1.0067e-06
8.29304e-09
1.01814e-06
9.82388e-10
1.02862e-06
-6.97493e-09
1.03814e-06
-1.52206e-08
1.0467e-06
-2.35582e-08
1.05423e-06
-3.18847e-08
1.0607e-06
-4.01139e-08
1.06602e-06
-4.81608e-08
1.07013e-06
-5.59396e-08
1.07297e-06
-6.33586e-08
1.07449e-06
-7.03183e-08
1.07467e-06
-7.6716e-08
-8.24704e-08
1.07355e-06
1.15029e-06
2.72476e-09
1.15993e-06
7.08536e-09
1.17255e-06
7.90052e-09
1.18609e-06
5.42435e-09
1.19966e-06
8.99349e-10
1.21277e-06
-4.81371e-09
1.22506e-06
-1.13127e-08
1.23637e-06
-1.8279e-08
1.2466e-06
-2.54512e-08
1.2557e-06
-3.26594e-08
1.26361e-06
-3.97988e-08
1.27028e-06
-4.67842e-08
1.27566e-06
-5.35336e-08
1.27969e-06
-5.99676e-08
1.28234e-06
-6.60087e-08
1.2836e-06
-7.15821e-08
1.2835e-06
-7.66179e-08
-8.107e-08
1.2821e-06
1.40105e-06
-5.69106e-10
1.41005e-06
-1.92111e-09
1.4225e-06
-4.54477e-09
1.43641e-06
-8.48657e-09
1.45063e-06
-1.33241e-08
1.46452e-06
-1.86986e-08
1.47762e-06
-2.44165e-08
1.48967e-06
-3.0324e-08
1.5005e-06
-3.62803e-08
1.51002e-06
-4.21793e-08
1.51816e-06
-4.79435e-08
1.52488e-06
-5.35054e-08
1.53015e-06
-5.87998e-08
1.53395e-06
-6.37646e-08
1.53628e-06
-6.83426e-08
1.53718e-06
-7.24832e-08
1.53671e-06
-7.61438e-08
-7.9303e-08
1.53494e-06
1.70711e-06
-3.79919e-09
1.71622e-06
-1.10261e-08
1.72918e-06
-1.75066e-08
1.74399e-06
-2.32989e-08
1.75927e-06
-2.86057e-08
1.77421e-06
-3.36333e-08
1.78827e-06
-3.84848e-08
1.80113e-06
-4.31836e-08
1.81258e-06
-4.77265e-08
1.8225e-06
-5.21012e-08
1.83084e-06
-5.6284e-08
1.83758e-06
-6.0241e-08
1.84271e-06
-6.39336e-08
1.84627e-06
-6.73233e-08
1.8483e-06
-7.03753e-08
1.84888e-06
-7.30596e-08
1.84809e-06
-7.53536e-08
-7.72505e-08
1.84604e-06
2.08091e-06
-7.66041e-09
2.09198e-06
-2.20927e-08
2.10759e-06
-3.31178e-08
2.12516e-06
-4.08691e-08
2.14299e-06
-4.64359e-08
2.16016e-06
-5.07977e-08
2.1761e-06
-5.44246e-08
2.19045e-06
-5.75405e-08
2.20304e-06
-6.03119e-08
2.21378e-06
-6.28469e-08
2.22269e-06
-6.51877e-08
2.22979e-06
-6.73382e-08
2.23514e-06
-6.92873e-08
2.23883e-06
-7.10178e-08
2.24097e-06
-7.25104e-08
2.24166e-06
-7.3747e-08
2.24102e-06
-7.47136e-08
-7.54057e-08
2.23917e-06
1.52444e-06
-1.15615e-08
1.5351e-06
-3.27452e-08
1.54919e-06
-4.72117e-08
1.56398e-06
-5.56593e-08
1.57826e-06
-6.0714e-08
1.59157e-06
-6.41113e-08
1.60362e-06
-6.64742e-08
1.61424e-06
-6.81561e-08
1.6234e-06
-6.94709e-08
1.63115e-06
-7.06001e-08
1.63757e-06
-7.16042e-08
1.64272e-06
-7.24929e-08
1.64669e-06
-7.32597e-08
1.64956e-06
-7.38883e-08
1.65141e-06
-7.43572e-08
1.65231e-06
-7.46461e-08
1.65233e-06
-7.47375e-08
-7.4626e-08
1.65155e-06
1.32888e-06
-1.67367e-08
1.34236e-06
-4.62174e-08
1.35864e-06
-6.34981e-08
1.3744e-06
-7.14203e-08
1.38894e-06
-7.52524e-08
1.40214e-06
-7.7312e-08
1.41383e-06
-7.81589e-08
1.42396e-06
-7.82917e-08
1.43265e-06
-7.8154e-08
1.43998e-06
-7.79313e-08
1.44603e-06
-7.76564e-08
1.45086e-06
-7.73273e-08
1.45454e-06
-7.69335e-08
1.4571e-06
-7.64552e-08
1.45862e-06
-7.58692e-08
1.45913e-06
-7.51569e-08
1.45869e-06
-7.43016e-08
-7.33099e-08
1.45738e-06
1.15994e-06
-2.43243e-08
1.17798e-06
-6.4258e-08
1.19736e-06
-8.28726e-08
1.21471e-06
-8.87684e-08
1.23025e-06
-9.07991e-08
1.24404e-06
-9.11e-08
1.25588e-06
-8.99996e-08
1.26582e-06
-8.82271e-08
1.27397e-06
-8.63016e-08
1.28039e-06
-8.43573e-08
1.28514e-06
-8.24093e-08
1.28829e-06
-8.04724e-08
1.28991e-06
-7.85522e-08
1.29009e-06
-7.66391e-08
1.28894e-06
-7.47184e-08
1.28656e-06
-7.27791e-08
1.28307e-06
-7.08077e-08
-6.88237e-08
1.27858e-06
1.01499e-06
-3.61285e-08
1.03937e-06
-8.86426e-08
1.06232e-06
-1.05825e-07
1.0817e-06
-1.08141e-07
1.09846e-06
-1.07558e-07
1.11225e-06
-1.04898e-07
1.12282e-06
-1.00564e-07
1.13033e-06
-9.57407e-08
1.13504e-06
-9.10053e-08
1.13715e-06
-8.64704e-08
1.13693e-06
-8.21853e-08
1.13464e-06
-7.81905e-08
1.13058e-06
-7.44864e-08
1.12498e-06
-7.10453e-08
1.1181e-06
-6.78319e-08
1.11013e-06
-6.48135e-08
1.10128e-06
-6.19547e-08
-5.92588e-08
1.09171e-06
8.92194e-07
-5.50001e-08
9.24443e-07
-1.20892e-07
9.50616e-07
-1.31998e-07
9.70777e-07
-1.28302e-07
9.85683e-07
-1.22463e-07
9.94685e-07
-1.13901e-07
9.98264e-07
-1.04142e-07
9.97441e-07
-9.49183e-08
9.93109e-07
-8.66736e-08
9.86026e-07
-7.93873e-08
9.76858e-07
-7.30171e-08
9.66153e-07
-6.74857e-08
9.54341e-07
-6.26737e-08
9.41752e-07
-5.84568e-08
9.28647e-07
-5.47264e-08
9.15225e-07
-5.13921e-08
9.01648e-07
-4.83771e-08
-4.56451e-08
8.88034e-07
7.90125e-07
-8.48541e-08
8.29696e-07
-1.60463e-07
8.54823e-07
-1.57124e-07
8.68631e-07
-1.42111e-07
8.72347e-07
-1.26179e-07
8.6741e-07
-1.08963e-07
8.56673e-07
-9.3406e-08
8.42484e-07
-8.07287e-08
8.26333e-07
-7.05229e-08
8.09211e-07
-6.22653e-08
7.91771e-07
-5.55771e-08
7.7441e-07
-5.01251e-08
7.57358e-07
-4.56218e-08
7.40746e-07
-4.1844e-08
7.24644e-07
-3.86249e-08
7.0909e-07
-3.58384e-08
6.94103e-07
-3.33895e-08
-3.12185e-08
6.79676e-07
7.05909e-07
-1.28909e-07
7.4462e-07
-1.99174e-07
7.55796e-07
-1.683e-07
7.49597e-07
-1.35912e-07
7.31683e-07
-1.08264e-07
7.07837e-07
-8.51172e-08
6.82582e-07
-6.81516e-08
6.57988e-07
-5.61344e-08
6.34791e-07
-4.73262e-08
6.13223e-07
-4.06971e-08
5.9327e-07
-3.56239e-08
5.74803e-07
-3.16579e-08
5.57663e-07
-2.84825e-08
5.41703e-07
-2.58835e-08
5.26791e-07
-2.37126e-08
5.12815e-07
-2.18628e-08
4.99686e-07
-2.02604e-08
-1.88508e-08
4.87318e-07
6.30082e-07
-1.82812e-07
6.46068e-07
-2.1516e-07
6.25588e-07
-1.47821e-07
5.91043e-07
-1.01367e-07
5.53245e-07
-7.04664e-08
5.18655e-07
-5.0527e-08
4.89083e-07
-3.85791e-08
4.63905e-07
-3.09572e-08
4.42217e-07
-2.56381e-08
4.23298e-07
-2.17778e-08
4.06578e-07
-1.89037e-08
3.91617e-07
-1.6697e-08
3.78087e-07
-1.49526e-08
3.65743e-07
-1.35391e-08
3.54398e-07
-1.23677e-08
3.4391e-07
-1.13749e-08
3.3417e-07
-1.05202e-08
-9.76749e-09
3.25086e-07
5.40423e-07
-2.21644e-07
5.05632e-07
-1.80369e-07
4.49961e-07
-9.21493e-08
3.99219e-07
-5.06255e-08
3.59389e-07
-3.06362e-08
3.2984e-07
-2.09774e-08
3.07233e-07
-1.59722e-08
2.89034e-07
-1.27585e-08
2.7389e-07
-1.04946e-08
2.60992e-07
-8.87945e-09
2.49782e-07
-7.69322e-09
2.39872e-07
-6.78735e-09
2.30993e-07
-6.07366e-09
2.22951e-07
-5.49697e-09
2.15603e-07
-5.01995e-09
2.08843e-07
-4.61523e-09
2.02592e-07
-4.26848e-09
-3.95934e-09
1.96784e-07
4.0488e-07
-1.89863e-07
3.13733e-07
-8.92215e-08
2.50167e-07
-2.8583e-08
2.11117e-07
-1.15756e-08
1.86971e-07
-6.49053e-09
1.70695e-07
-4.70092e-09
1.58391e-07
-3.66825e-09
1.48543e-07
-2.91064e-09
1.40432e-07
-2.38368e-09
1.33572e-07
-2.0192e-09
1.27631e-07
-1.75279e-09
1.22392e-07
-1.54858e-09
1.17706e-07
-1.38751e-09
1.13467e-07
-1.2573e-09
1.09596e-07
-1.14951e-09
1.06038e-07
-1.0574e-09
1.02749e-07
-9.79613e-10
-9.07251e-10
9.96974e-08
1.90273e-07
1.01051e-07
7.24685e-08
6.08928e-08
5.44023e-08
4.97013e-08
4.60331e-08
4.31225e-08
4.07388e-08
3.87196e-08
3.69668e-08
3.54182e-08
3.40307e-08
3.27734e-08
3.16239e-08
3.05665e-08
2.95869e-08
2.86796e-08
-5.01106e-10
5.01106e-10
-1.88622e-09
1.38512e-09
-3.91479e-09
2.02856e-09
-6.34143e-09
2.42664e-09
-8.97951e-09
2.63808e-09
-1.16973e-08
2.71779e-09
-1.44055e-08
2.70822e-09
-1.70448e-08
2.63925e-09
-1.9575e-08
2.53028e-09
-2.19678e-08
2.39277e-09
-2.42005e-08
2.23274e-09
-2.62533e-08
2.05273e-09
-2.81066e-08
1.8533e-09
-2.97406e-08
1.634e-09
-3.11347e-08
1.39411e-09
-3.22678e-08
1.13306e-09
-3.31184e-08
8.50686e-10
-3.36659e-08
5.47407e-10
-3.389e-08
2.24149e-10
-3.37731e-08
-1.16884e-10
-3.33003e-08
-4.72809e-10
-3.24602e-08
-8.40131e-10
-3.12454e-08
-1.21473e-09
-2.96534e-08
-1.592e-09
-2.76865e-08
-1.96693e-09
-2.53521e-08
-2.33442e-09
-2.26628e-08
-2.68934e-09
-1.96359e-08
-3.02684e-09
-1.62932e-08
-3.34271e-09
-1.26611e-08
-3.63212e-09
-8.76969e-09
-3.89141e-09
-4.65227e-09
-4.11742e-09
-3.44671e-10
-4.3076e-09
4.11565e-09
-4.46032e-09
8.69035e-09
-4.57471e-09
1.33413e-08
-4.65091e-09
1.80311e-08
-4.68988e-09
2.27243e-08
-4.69319e-09
2.73873e-08
-4.66298e-09
3.19891e-08
-4.60183e-09
3.65018e-08
-4.51269e-09
4.09006e-08
-4.39875e-09
4.51639e-08
-4.26333e-09
4.92737e-08
-4.1098e-09
5.32152e-08
-3.9415e-09
5.69769e-08
-3.76165e-09
6.05502e-08
-3.57329e-09
6.39294e-08
-3.37926e-09
6.71116e-08
-3.18215e-09
7.00958e-08
-2.98427e-09
7.28835e-08
-2.78765e-09
7.54775e-08
-2.59406e-09
7.78825e-08
-2.40497e-09
8.01041e-08
-2.22161e-09
8.21491e-08
-2.04494e-09
8.40248e-08
-1.87573e-09
8.57393e-08
-1.71451e-09
8.7301e-08
-1.56166e-09
8.87184e-08
-1.41739e-09
9.00001e-08
-1.28177e-09
9.11549e-08
-1.15476e-09
9.21911e-08
-1.03623e-09
9.31171e-08
-9.25966e-10
9.39408e-08
-8.237e-10
9.46699e-08
-7.29114e-10
9.53118e-08
-6.41859e-10
9.58733e-08
-5.61559e-10
9.63611e-08
-4.87827e-10
9.67814e-08
-4.20274e-10
9.71399e-08
-3.58498e-10
9.7442e-08
-3.0212e-10
9.76928e-08
-2.50753e-10
9.78968e-08
-2.04029e-10
9.80584e-08
-1.61599e-10
9.81815e-08
-1.23119e-10
9.82698e-08
-8.82737e-11
9.83266e-08
-5.67623e-11
9.8355e-08
-2.83917e-11
9.83591e-08
-4.18213e-12
9.83387e-08
2.04729e-11
9.82974e-08
4.12639e-11
9.82376e-08
5.9832e-11
9.81611e-08
7.64993e-11
9.80696e-08
9.14466e-11
9.79648e-08
1.0484e-10
9.78479e-08
1.16838e-10
9.77204e-08
1.27569e-10
9.75832e-08
1.37162e-10
9.74375e-08
1.45728e-10
9.72841e-08
1.53374e-10
9.71239e-08
1.60196e-10
9.69576e-08
1.66275e-10
9.6786e-08
1.71693e-10
9.66094e-08
1.76515e-10
9.64286e-08
1.80817e-10
9.6244e-08
1.84656e-10
9.60559e-08
1.88089e-10
9.58647e-08
1.91171e-10
9.56708e-08
1.93938e-10
9.54743e-08
1.96432e-10
9.52757e-08
1.9868e-10
9.50749e-08
2.00715e-10
9.48724e-08
2.0256e-10
9.46681e-08
2.04245e-10
9.44623e-08
2.05787e-10
9.42551e-08
2.07211e-10
9.40466e-08
2.08533e-10
9.38368e-08
2.0977e-10
9.36259e-08
2.10936e-10
9.34138e-08
2.12043e-10
9.32007e-08
2.13102e-10
9.29866e-08
2.14124e-10
9.27715e-08
2.15115e-10
9.25554e-08
2.16085e-10
9.23384e-08
2.1704e-10
9.21204e-08
2.17989e-10
9.19015e-08
2.18933e-10
9.16816e-08
2.19885e-10
9.14607e-08
2.20842e-10
9.12389e-08
2.21815e-10
9.10161e-08
2.228e-10
9.07923e-08
2.23803e-10
9.05675e-08
2.24816e-10
9.03416e-08
2.25843e-10
9.01148e-08
2.2688e-10
8.98868e-08
2.27926e-10
8.96578e-08
2.2899e-10
8.94278e-08
2.3007e-10
8.91966e-08
2.31174e-10
8.89643e-08
2.32306e-10
8.87308e-08
2.33465e-10
8.84962e-08
2.34659e-10
8.82603e-08
2.35883e-10
8.80232e-08
2.37142e-10
8.77847e-08
2.38435e-10
8.7545e-08
2.39762e-10
8.73038e-08
2.4112e-10
8.70613e-08
2.42513e-10
8.68174e-08
2.43933e-10
8.6572e-08
2.45378e-10
8.63252e-08
2.46847e-10
8.60768e-08
2.48336e-10
8.5827e-08
2.4985e-10
8.55756e-08
2.51389e-10
8.53226e-08
2.52958e-10
8.50681e-08
2.54563e-10
8.48119e-08
2.56214e-10
8.45539e-08
2.57918e-10
8.42943e-08
2.59685e-10
8.40327e-08
2.61522e-10
8.37693e-08
2.63437e-10
8.35038e-08
2.65447e-10
8.32363e-08
2.67568e-10
8.29665e-08
2.69821e-10
8.26942e-08
2.72238e-10
8.24194e-08
2.74855e-10
8.21416e-08
2.77725e-10
8.18607e-08
2.80907e-10
8.15763e-08
2.84482e-10
8.12877e-08
2.88549e-10
8.09945e-08
2.93241e-10
8.06957e-08
2.9872e-10
8.03905e-08
3.05203e-10
8.00776e-08
3.12965e-10
7.97552e-08
3.22367e-10
7.94213e-08
3.33881e-10
7.90732e-08
3.48126e-10
7.87073e-08
3.65931e-10
7.83189e-08
3.8841e-10
7.79018e-08
4.17082e-10
7.74477e-08
4.54057e-10
7.69454e-08
5.02346e-10
7.63791e-08
5.66297e-10
7.57262e-08
6.5284e-10
7.49543e-08
7.7196e-10
7.40073e-08
9.4699e-10
7.2808e-08
1.19927e-09
7.10931e-08
1.71495e-09
6.86136e-08
2.47952e-09
5.31919e-09
6.32944e-08
-1.19647e-09
1.69758e-09
-3.98444e-09
4.17308e-09
-7.79781e-09
5.84193e-09
-1.22169e-08
6.84577e-09
-1.69258e-08
7.34697e-09
-2.16953e-08
7.48728e-09
-2.63636e-08
7.37647e-09
-3.08174e-08
7.09307e-09
-3.49769e-08
6.68974e-09
-3.87835e-08
6.19939e-09
-4.21917e-08
5.64098e-09
-4.51633e-08
5.02429e-09
-4.76635e-08
4.35357e-09
-4.96595e-08
3.63001e-09
-5.11193e-08
2.85389e-09
-5.20118e-08
2.02555e-09
-5.23075e-08
1.14642e-09
-5.19789e-08
2.18762e-10
-5.10019e-08
-7.52892e-10
-4.93564e-08
-1.76229e-09
-4.7028e-08
-2.80127e-09
-4.40081e-08
-3.86e-09
-4.02956e-08
-4.92725e-09
-3.58968e-08
-5.99081e-09
-3.08259e-08
-7.03783e-09
-2.51048e-08
-8.05546e-09
-1.87633e-08
-9.03091e-09
-1.18393e-08
-9.95075e-09
-4.378e-09
-1.0804e-08
3.56938e-09
-1.15795e-08
1.1946e-08
-1.2268e-08
2.06907e-08
-1.28622e-08
2.97402e-08
-1.3357e-08
3.90291e-08
-1.37493e-08
4.84923e-08
-1.40379e-08
5.80652e-08
-1.42238e-08
6.76851e-08
-1.43098e-08
7.7292e-08
-1.43001e-08
8.68293e-08
-1.42003e-08
9.62446e-08
-1.40172e-08
1.0549e-07
-1.37584e-08
1.14524e-07
-1.3432e-08
1.23307e-07
-1.30466e-08
1.31808e-07
-1.26109e-08
1.4e-07
-1.21335e-08
1.47861e-07
-1.16227e-08
1.55374e-07
-1.10865e-08
1.62527e-07
-1.05324e-08
1.69312e-07
-9.96725e-09
1.75725e-07
-9.39738e-09
1.81766e-07
-8.82835e-09
1.87437e-07
-8.26508e-09
1.92744e-07
-7.71177e-09
1.97694e-07
-7.17202e-09
2.02298e-07
-6.64877e-09
2.06567e-07
-6.14436e-09
2.10513e-07
-5.66064e-09
2.1415e-07
-5.19892e-09
2.17493e-07
-4.76012e-09
2.20556e-07
-4.34474e-09
2.23354e-07
-3.95299e-09
2.25903e-07
-3.58476e-09
2.28216e-07
-3.23971e-09
2.3031e-07
-2.91734e-09
2.32198e-07
-2.61694e-09
2.33894e-07
-2.33774e-09
2.35411e-07
-2.07882e-09
2.36762e-07
-1.83923e-09
2.3796e-07
-1.61797e-09
2.39016e-07
-1.41403e-09
2.3994e-07
-1.22637e-09
2.40743e-07
-1.05398e-09
2.41435e-07
-8.95843e-10
2.42024e-07
-7.50992e-10
2.4252e-07
-6.18494e-10
2.42929e-07
-4.97443e-10
2.43259e-07
-3.86997e-10
2.43517e-07
-2.86378e-10
2.43708e-07
-1.94834e-10
2.43839e-07
-1.10975e-10
2.43915e-07
-3.49344e-11
2.43941e-07
3.403e-11
2.43921e-07
9.66121e-11
2.43859e-07
1.53409e-10
2.43759e-07
2.04903e-10
2.43624e-07
2.51594e-10
2.43458e-07
2.93903e-10
2.43263e-07
3.32243e-10
2.43042e-07
3.6697e-10
2.42797e-07
3.98434e-10
2.4253e-07
4.26938e-10
2.42243e-07
4.52763e-10
2.41939e-07
4.76163e-10
2.41618e-07
4.97378e-10
2.41282e-07
5.16628e-10
2.40933e-07
5.34118e-10
2.40571e-07
5.50038e-10
2.40197e-07
5.64548e-10
2.39814e-07
5.7781e-10
2.3942e-07
5.89943e-10
2.39018e-07
6.01075e-10
2.38607e-07
6.11303e-10
2.38189e-07
6.20733e-10
2.37764e-07
6.2945e-10
2.37332e-07
6.37533e-10
2.36894e-07
6.45057e-10
2.36451e-07
6.5209e-10
2.36002e-07
6.58693e-10
2.35548e-07
6.64915e-10
2.35089e-07
6.70812e-10
2.34626e-07
6.76417e-10
2.34158e-07
6.81774e-10
2.33686e-07
6.86917e-10
2.3321e-07
6.91884e-10
2.32731e-07
6.96692e-10
2.32247e-07
7.01379e-10
2.3176e-07
7.05964e-10
2.3127e-07
7.10467e-10
2.30776e-07
7.14911e-10
2.30278e-07
7.19314e-10
2.29777e-07
7.23687e-10
2.29273e-07
7.28042e-10
2.28765e-07
7.32383e-10
2.28255e-07
7.36721e-10
2.2774e-07
7.41061e-10
2.27223e-07
7.45409e-10
2.26702e-07
7.49768e-10
2.26178e-07
7.54155e-10
2.25651e-07
7.58577e-10
2.2512e-07
7.63041e-10
2.24586e-07
7.67557e-10
2.24048e-07
7.7213e-10
2.23507e-07
7.76762e-10
2.22963e-07
7.81461e-10
2.22415e-07
7.86229e-10
2.21864e-07
7.9106e-10
2.21309e-07
7.95966e-10
2.20751e-07
8.00936e-10
2.20189e-07
8.05973e-10
2.19623e-07
8.11075e-10
2.19054e-07
8.16243e-10
2.1848e-07
8.21471e-10
2.17904e-07
8.26775e-10
2.17323e-07
8.32156e-10
2.16738e-07
8.37637e-10
2.16149e-07
8.43232e-10
2.15557e-07
8.48963e-10
2.1496e-07
8.54852e-10
2.14359e-07
8.60927e-10
2.13753e-07
8.67212e-10
2.13143e-07
8.73741e-10
2.12527e-07
8.80561e-10
2.11907e-07
8.87715e-10
2.11282e-07
8.95286e-10
2.10651e-07
9.03357e-10
2.10013e-07
9.1205e-10
2.0937e-07
9.21509e-10
2.08719e-07
9.31929e-10
2.0806e-07
9.43551e-10
2.07391e-07
9.56688e-10
2.06713e-07
9.71738e-10
2.06022e-07
9.89204e-10
2.05318e-07
1.00975e-09
2.04597e-07
1.03423e-09
2.03855e-07
1.06374e-09
2.03089e-07
1.09974e-09
2.02293e-07
1.14414e-09
2.0146e-07
1.1995e-09
2.00579e-07
1.26922e-09
1.99638e-07
1.35799e-09
1.9862e-07
1.47229e-09
1.97501e-07
1.62128e-09
1.96249e-07
1.81831e-09
1.94818e-07
2.0838e-09
1.93141e-07
2.44913e-09
1.91115e-07
2.97295e-09
1.88567e-07
3.74671e-09
1.85233e-07
5.04972e-09
1.8035e-07
7.36225e-09
1.19097e-08
1.73759e-07
-1.44707e-09
3.14464e-09
-4.76731e-09
7.49333e-09
-9.23945e-09
1.03141e-08
-1.43515e-08
1.19579e-08
-1.9735e-08
1.27304e-08
-2.51261e-08
1.28784e-08
-3.03377e-08
1.25881e-08
-3.52378e-08
1.19931e-08
-3.97317e-08
1.11837e-08
-4.375e-08
1.02177e-08
-4.72387e-08
9.12971e-09
-5.01533e-08
7.93889e-09
-5.24545e-08
6.65471e-09
-5.41058e-08
5.2814e-09
-5.5073e-08
3.82107e-09
-5.53234e-08
2.27589e-09
-5.48265e-08
6.49542e-10
-5.35544e-08
-1.05336e-09
-5.14831e-08
-2.82413e-09
-4.85943e-08
-4.6511e-09
-4.48759e-08
-6.51972e-09
-4.03231e-08
-8.41277e-09
-3.49394e-08
-1.0311e-08
-2.87372e-08
-1.2193e-08
-2.17378e-08
-1.40373e-08
-1.39693e-08
-1.5824e-08
-5.47424e-09
-1.75259e-08
3.69962e-09
-1.91246e-08
1.3496e-08
-2.06005e-08
2.38523e-08
-2.19358e-08
3.47007e-08
-2.31164e-08
4.59698e-08
-2.41313e-08
5.75856e-08
-2.49728e-08
6.94731e-08
-2.56367e-08
8.15571e-08
-2.61219e-08
9.37638e-08
-2.64306e-08
1.06022e-07
-2.65677e-08
1.18263e-07
-2.6541e-08
1.30422e-07
-2.63599e-08
1.42441e-07
-2.60359e-08
1.54265e-07
-2.55818e-08
1.65844e-07
-2.50112e-08
1.77135e-07
-2.43382e-08
1.88102e-07
-2.35772e-08
1.98711e-07
-2.27425e-08
2.08936e-07
-2.1848e-08
2.18756e-07
-2.0907e-08
2.28156e-07
-1.99318e-08
2.37123e-07
-1.89342e-08
2.4565e-07
-1.79248e-08
2.53735e-07
-1.69131e-08
2.61377e-07
-1.59075e-08
2.68581e-07
-1.49154e-08
2.75352e-07
-1.39433e-08
2.817e-07
-1.29964e-08
2.87635e-07
-1.20791e-08
2.93169e-07
-1.1195e-08
2.98317e-07
-1.03467e-08
3.03093e-07
-9.53615e-09
3.07513e-07
-8.76471e-09
3.11593e-07
-8.03309e-09
3.1535e-07
-7.34152e-09
3.188e-07
-6.68979e-09
3.2196e-07
-6.07735e-09
3.24846e-07
-5.50334e-09
3.27475e-07
-4.96664e-09
3.29862e-07
-4.46598e-09
3.32023e-07
-3.99992e-09
3.33972e-07
-3.5669e-09
3.35723e-07
-3.16531e-09
3.3729e-07
-2.7935e-09
3.38686e-07
-2.4498e-09
3.39923e-07
-2.13254e-09
3.41012e-07
-1.84009e-09
3.41964e-07
-1.57084e-09
3.4279e-07
-1.32323e-09
3.43499e-07
-1.09578e-09
3.44099e-07
-8.8704e-10
3.446e-07
-6.95614e-10
3.45009e-07
-5.20125e-10
3.45334e-07
-3.59436e-10
3.4558e-07
-2.12456e-10
3.45755e-07
-7.80338e-11
3.45864e-07
4.48861e-11
3.45911e-07
1.57178e-10
3.45903e-07
2.59757e-10
3.45844e-07
3.53421e-10
3.45737e-07
4.38947e-10
3.45587e-07
5.17041e-10
3.45397e-07
5.88344e-10
3.4517e-07
6.53469e-10
3.4491e-07
7.12957e-10
3.44619e-07
7.67316e-10
3.44299e-07
8.17018e-10
3.43953e-07
8.62488e-10
3.43583e-07
9.04128e-10
3.43191e-07
9.42307e-10
3.42778e-07
9.77364e-10
3.42347e-07
1.00959e-09
3.41897e-07
1.03928e-09
3.41432e-07
1.06667e-09
3.40951e-07
1.09199e-09
3.40456e-07
1.11543e-09
3.39949e-07
1.13719e-09
3.39429e-07
1.15743e-09
3.38897e-07
1.17632e-09
3.38355e-07
1.19399e-09
3.37804e-07
1.21059e-09
3.37242e-07
1.22621e-09
3.36672e-07
1.24097e-09
3.36094e-07
1.25497e-09
3.35507e-07
1.26829e-09
3.34913e-07
1.28101e-09
3.34312e-07
1.2932e-09
3.33703e-07
1.30494e-09
3.33089e-07
1.31628e-09
3.32467e-07
1.32728e-09
3.3184e-07
1.33799e-09
3.31206e-07
1.34844e-09
3.30567e-07
1.35869e-09
3.29922e-07
1.36876e-09
3.29271e-07
1.3787e-09
3.28615e-07
1.38852e-09
3.27953e-07
1.39825e-09
3.27287e-07
1.4079e-09
3.26614e-07
1.4175e-09
3.25937e-07
1.42707e-09
3.25255e-07
1.43662e-09
3.24567e-07
1.44618e-09
3.23874e-07
1.45576e-09
3.23177e-07
1.46538e-09
3.22474e-07
1.47505e-09
3.21766e-07
1.48478e-09
3.21052e-07
1.49459e-09
3.20334e-07
1.50447e-09
3.19611e-07
1.51445e-09
3.18882e-07
1.52451e-09
3.18149e-07
1.53468e-09
3.1741e-07
1.54493e-09
3.16665e-07
1.55529e-09
3.15916e-07
1.56576e-09
3.15161e-07
1.57635e-09
3.14401e-07
1.58706e-09
3.13635e-07
1.59792e-09
3.12864e-07
1.60896e-09
3.12087e-07
1.6202e-09
3.11304e-07
1.63168e-09
3.10515e-07
1.64344e-09
3.09721e-07
1.65553e-09
3.0892e-07
1.668e-09
3.08113e-07
1.68091e-09
3.07299e-07
1.69433e-09
3.06478e-07
1.70838e-09
3.0565e-07
1.72318e-09
3.04815e-07
1.73889e-09
3.03971e-07
1.75572e-09
3.03119e-07
1.77396e-09
3.02257e-07
1.79393e-09
3.01384e-07
1.81608e-09
3.005e-07
1.84098e-09
2.99602e-07
1.86933e-09
2.9869e-07
1.90208e-09
2.97759e-07
1.9404e-09
2.96807e-07
1.98583e-09
2.95831e-07
2.0404e-09
2.94824e-07
2.10671e-09
2.9378e-07
2.18824e-09
2.92689e-07
2.28959e-09
2.91542e-07
2.41694e-09
2.90321e-07
2.57872e-09
2.89007e-07
2.78653e-09
2.87571e-07
3.0568e-09
2.85976e-07
3.4132e-09
2.84169e-07
3.89133e-09
2.82072e-07
4.5463e-09
2.79574e-07
5.47101e-09
2.76492e-07
6.82876e-09
2.72614e-07
8.92745e-09
2.67333e-07
1.26431e-08
1.80441e-08
2.61199e-07
-1.51038e-09
4.65502e-09
-5.0056e-09
1.09885e-08
-9.71946e-09
1.50279e-08
-1.50955e-08
1.73339e-08
-2.07357e-08
1.83706e-08
-2.63581e-08
1.85008e-08
-3.17651e-08
1.79951e-08
-3.68179e-08
1.70459e-08
-4.14177e-08
1.57835e-08
-4.54915e-08
1.42914e-08
-4.89821e-08
1.26203e-08
-5.18416e-08
1.07984e-08
-5.40269e-08
8.84003e-09
-5.54975e-08
6.75196e-09
-5.62143e-08
4.53791e-09
-5.61403e-08
2.20187e-09
-5.52391e-08
-2.51613e-10
-5.34789e-08
-2.81357e-09
-5.08322e-08
-5.4709e-09
-4.72774e-08
-8.20589e-09
-4.28005e-08
-1.09965e-08
-3.73963e-08
-1.3817e-08
-3.10688e-08
-1.66384e-08
-2.38323e-08
-1.94296e-08
-1.57114e-08
-2.21581e-08
-6.74489e-09
-2.47905e-08
3.02273e-09
-2.72936e-08
1.35347e-08
-2.96366e-08
2.47258e-08
-3.17916e-08
3.65251e-08
-3.3735e-08
4.8856e-08
-3.54473e-08
6.16385e-08
-3.69138e-08
7.47904e-08
-3.81248e-08
8.82289e-08
-3.90752e-08
1.01872e-07
-3.9765e-08
1.1564e-07
-4.01985e-08
1.29456e-07
-4.03838e-08
1.43248e-07
-4.03327e-08
1.56947e-07
-4.00597e-08
1.70493e-07
-3.95816e-08
1.83828e-07
-3.89168e-08
1.96902e-07
-3.8085e-08
2.0967e-07
-3.71063e-08
2.22094e-07
-3.6001e-08
2.3414e-07
-3.47892e-08
2.45783e-07
-3.34904e-08
2.56999e-07
-3.21231e-08
2.67772e-07
-3.07047e-08
2.78089e-07
-2.92515e-08
2.87943e-07
-2.77783e-08
2.97328e-07
-2.62985e-08
3.06245e-07
-2.4824e-08
3.14694e-07
-2.33653e-08
3.22683e-07
-2.19314e-08
3.30216e-07
-2.05302e-08
3.37305e-07
-1.91681e-08
3.43961e-07
-1.78502e-08
3.50195e-07
-1.65808e-08
3.56021e-07
-1.53629e-08
3.61455e-07
-1.41988e-08
3.66512e-07
-1.309e-08
3.71208e-07
-1.20371e-08
3.75558e-07
-1.10403e-08
3.7958e-07
-1.00992e-08
3.8329e-07
-9.21289e-09
3.86703e-07
-8.38015e-09
3.89837e-07
-7.59948e-09
3.92706e-07
-6.8691e-09
3.95326e-07
-6.18709e-09
3.97712e-07
-5.55134e-09
3.99878e-07
-4.95971e-09
4.01839e-07
-4.40997e-09
4.03606e-07
-3.89987e-09
4.05193e-07
-3.42718e-09
4.06612e-07
-2.98969e-09
4.07874e-07
-2.58522e-09
4.0899e-07
-2.21167e-09
4.0997e-07
-1.86699e-09
4.10823e-07
-1.54922e-09
4.1156e-07
-1.25645e-09
4.12187e-07
-9.86919e-10
4.12714e-07
-7.38962e-10
4.13147e-07
-5.10977e-10
4.13493e-07
-3.01439e-10
4.13759e-07
-1.08883e-10
4.13951e-07
6.80265e-11
4.14074e-07
2.30509e-10
4.14133e-07
3.79676e-10
4.14133e-07
5.16631e-10
4.14079e-07
6.4237e-10
4.13975e-07
7.57829e-10
4.13824e-07
8.63868e-10
4.1363e-07
9.61288e-10
4.13396e-07
1.05083e-09
4.13126e-07
1.13316e-09
4.12821e-07
1.20894e-09
4.12484e-07
1.27873e-09
4.12119e-07
1.34308e-09
4.11726e-07
1.40247e-09
4.11308e-07
1.45738e-09
4.10866e-07
1.50818e-09
4.10403e-07
1.55527e-09
4.09919e-07
1.59899e-09
4.09417e-07
1.63964e-09
4.08897e-07
1.67753e-09
4.0836e-07
1.7129e-09
4.07808e-07
1.74601e-09
4.07242e-07
1.77707e-09
4.06662e-07
1.80629e-09
4.06069e-07
1.83386e-09
4.05464e-07
1.85993e-09
4.04847e-07
1.88468e-09
4.0422e-07
1.90823e-09
4.03583e-07
1.9307e-09
4.02935e-07
1.95224e-09
4.02279e-07
1.97293e-09
4.01613e-07
1.99287e-09
4.00939e-07
2.01217e-09
4.00256e-07
2.0309e-09
3.99566e-07
2.04912e-09
3.98868e-07
2.06692e-09
3.98162e-07
2.08435e-09
3.97449e-07
2.10146e-09
3.96729e-07
2.1183e-09
3.96002e-07
2.13491e-09
3.95268e-07
2.15133e-09
3.94528e-07
2.16761e-09
3.93781e-07
2.18377e-09
3.93027e-07
2.19985e-09
3.92267e-07
2.21588e-09
3.915e-07