/*--------------------------------*- C++ -*----------------------------------*\
  =========                 |
  \\      /  F ield         | OpenFOAM: The Open Source CFD Toolbox
   \\    /   O peration     | Website:  https://openfoam.org
    \\  /    A nd           | Version:  8
     \\/     M anipulation  |
\*---------------------------------------------------------------------------*/
FoamFile
{
    version     2.0;
    format      ascii;
    class       volVectorField;
    location    "0.12";
    object      U;
}
// * * * * * * * * * * * * * * * * * * * * * * * * * * * * * * * * * * * * * //

dimensions      [0 1 -1 0 0 0 0];

internalField   nonuniform List<vector> 
12225
(
(0.403508 0.050109 0)
(0.243627 0.0134509 0)
(0.1555 0.00108498 0)
(0.121997 0.000279801 0)
(0.111936 0.000302416 0)
(0.104959 0.000232149 0)
(0.0999846 0.000130831 0)
(0.097061 5.76032e-05 0)
(0.0956033 3.38762e-06 0)
(0.0952567 -4.71837e-05 0)
(0.0958879 -0.0001024 0)
(0.0974641 -0.000165401 0)
(0.100047 -0.000245563 0)
(0.103815 -0.000358633 0)
(0.109207 -0.000556176 0)
(0.117032 -0.000937633 0)
(0.131494 -0.00271183 0)
(0.150876 -0.0194932 0)
(0.757789 0.132206 0)
(0.609857 0.0676651 0)
(0.452512 0.021315 0)
(0.363329 0.00883343 0)
(0.326796 0.00478069 0)
(0.305343 0.00319988 0)
(0.290528 0.00211239 0)
(0.281231 0.0012334 0)
(0.27608 0.000531252 0)
(0.274093 -8.84912e-05 0)
(0.274816 -0.000713207 0)
(0.278079 -0.00139323 0)
(0.28395 -0.0022078 0)
(0.292749 -0.0032886 0)
(0.305285 -0.00492447 0)
(0.322874 -0.00790294 0)
(0.350048 -0.0146227 0)
(0.383736 -0.0414342 0)
(0.89895 0.155689 0)
(0.851285 0.111337 0)
(0.712904 0.0522254 0)
(0.597821 0.027085 0)
(0.536106 0.015384 0)
(0.499762 0.0098465 0)
(0.475302 0.00657182 0)
(0.459355 0.00409502 0)
(0.44985 0.00208228 0)
(0.445317 0.000316399 0)
(0.444972 -0.00140493 0)
(0.448466 -0.00323439 0)
(0.455763 -0.005358 0)
(0.467141 -0.00806212 0)
(0.483368 -0.011886 0)
(0.505497 -0.0180965 0)
(0.536267 -0.0295602 0)
(0.571381 -0.0585265 0)
(0.940107 0.141004 0)
(0.976581 0.132468 0)
(0.901138 0.0816086 0)
(0.799537 0.0509765 0)
(0.72801 0.0318379 0)
(0.681146 0.0206769 0)
(0.648843 0.0139114 0)
(0.627021 0.00900224 0)
(0.613221 0.00502356 0)
(0.6057 0.00154007 0)
(0.603438 -0.00178939 0)
(0.605919 -0.00525769 0)
(0.612953 -0.00917734 0)
(0.624644 -0.013991 0)
(0.641456 -0.0204364 0)
(0.663828 -0.0299931 0)
(0.692688 -0.0452489 0)
(0.723231 -0.0733361 0)
(0.941676 0.114636 0)
(1.01908 0.134219 0)
(1.0072 0.0998949 0)
(0.944247 0.0722236 0)
(0.88405 0.0501593 0)
(0.837525 0.0343592 0)
(0.802611 0.0237083 0)
(0.777607 0.015848 0)
(0.760855 0.00944873 0)
(0.750834 0.00383953 0)
(0.74652 -0.00147307 0)
(0.747332 -0.00691582 0)
(0.75296 -0.0129197 0)
(0.763303 -0.0200454 0)
(0.778449 -0.0291236 0)
(0.798224 -0.0415657 0)
(0.822366 -0.0593155 0)
(0.846252 -0.086005 0)
(0.932524 0.0887593 0)
(1.01581 0.123719 0)
(1.04607 0.10511 0)
(1.0249 0.0849048 0)
(0.989658 0.0649779 0)
(0.955431 0.0476401 0)
(0.92583 0.0342773 0)
(0.902522 0.023764 0)
(0.885759 0.0149404 0)
(0.874946 0.00709077 0)
(0.869436 -0.000351596 0)
(0.868775 -0.00790039 0)
(0.872653 -0.0160673 0)
(0.880831 -0.0254691 0)
(0.893097 -0.0369212 0)
(0.908856 -0.0515969 0)
(0.927253 -0.0707596 0)
(0.944319 -0.0960448 0)
(0.923521 0.0669389 0)
(0.994767 0.107328 0)
(1.04344 0.100254 0)
(1.05264 0.0877609 0)
(1.04339 0.0727086 0)
(1.02762 0.0569242 0)
(1.00992 0.0429573 0)
(0.993639 0.0309751 0)
(0.980731 0.0203632 0)
(0.971792 0.0106072 0)
(0.966848 0.0012224 0)
(0.96577 -0.00829386 0)
(0.968396 -0.018464 0)
(0.97448 -0.0298881 0)
(0.98366 -0.0432811 0)
(0.995166 -0.0595169 0)
(1.00797 -0.0792982 0)
(1.01897 -0.103206 0)
(0.917127 0.0497745 0)
(0.971563 0.0896287 0)
(1.02249 0.0898389 0)
(1.04734 0.0830294 0)
(1.05656 0.0729257 0)
(1.05775 0.0602669 0)
(1.05378 0.0474864 0)
(1.04755 0.0354794 0)
(1.04151 0.0241377 0)
(1.037 0.0132244 0)
(1.03463 0.002441 0)
(1.03465 -0.0086036 0)
(1.03711 -0.0203631 0)
(1.04186 -0.0333497 0)
(1.04856 -0.0481212 0)
(1.05644 -0.0652581 0)
(1.06459 -0.0850579 0)
(1.07077 -0.107585 0)
(0.913005 0.0368114 0)
(0.952298 0.0731239 0)
(0.99786 0.0775119 0)
(1.02743 0.074103 0)
(1.04581 0.0675699 0)
(1.05795 0.0580103 0)
(1.06492 0.0471725 0)
(1.0682 0.0361191 0)
(1.06968 0.0250119 0)
(1.07076 0.0137973 0)
(1.07225 0.00234576 0)
(1.07459 -0.00958293 0)
(1.078 -0.0223261 0)
(1.08244 -0.0362629 0)
(1.08766 -0.0517706 0)
(1.09305 -0.069175 0)
(1.09788 -0.0885087 0)
(1.1007 -0.109604 0)
(0.910395 0.0272143 0)
(0.937975 0.0587061 0)
(0.976134 0.0652911 0)
(1.00473 0.0637247 0)
(1.02556 0.0592447 0)
(1.04242 0.0519403 0)
(1.05559 0.0428983 0)
(1.06533 0.0330688 0)
(1.0727 0.0226996 0)
(1.07871 0.0118007 0)
(1.08399 0.000328372 0)
(1.08899 -0.0118449 0)
(1.09392 -0.0249329 0)
(1.09881 -0.0391753 0)
(1.10348 -0.0547824 0)
(1.10751 -0.0718825 0)
(1.11038 -0.0903525 0)
(1.11127 -0.109933 0)
(0.908732 0.0201347 0)
(0.927773 0.0464705 0)
(0.958947 0.0539537 0)
(0.984557 0.0533984 0)
(1.00453 0.0499471 0)
(1.02205 0.0440038 0)
(1.03734 0.0362363 0)
(1.05011 0.0274275 0)
(1.06076 0.0178469 0)
(1.06987 0.00751256 0)
(1.07782 -0.00359847 0)
(1.08487 -0.0155565 0)
(1.09115 -0.0284769 0)
(1.09668 -0.0424841 0)
(1.1013 -0.0576611 0)
(1.10474 -0.0740022 0)
(1.10667 -0.0913089 0)
(1.10669 -0.109298 0)
(0.907766 0.0152089 0)
(0.921195 0.03697 0)
(0.946957 0.0444467 0)
(0.969557 0.044436 0)
(0.987792 0.0414839 0)
(1.00429 0.0362582 0)
(1.01942 0.0292375 0)
(1.03275 0.0210853 0)
(1.04437 0.0120859 0)
(1.0546 0.00226354 0)
(1.06364 -0.00840289 0)
(1.0716 -0.0199522 0)
(1.07851 -0.0324396 0)
(1.08434 -0.045916 0)
(1.08895 -0.0603849 0)
(1.09215 -0.0757684 0)
(1.09371 -0.0918478 0)
(1.0935 -0.10835 0)
(0.90713 0.0114347 0)
(0.916427 0.0289042 0)
(0.937726 0.0357453 0)
(0.957564 0.0360261 0)
(0.973986 0.033378 0)
(0.989028 0.0285998 0)
(1.00318 0.0220941 0)
(1.01603 0.0144247 0)
(1.02753 0.00588368 0)
(1.03781 -0.0034848 0)
(1.047 -0.0136943 0)
(1.0551 -0.0247593 0)
(1.06207 -0.036693 0)
(1.06784 -0.049495 0)
(1.07228 -0.0631189 0)
(1.07526 -0.077449 0)
(1.07662 -0.0922712 0)
(1.07637 -0.107339 0)
(0.906652 0.00817814 0)
(0.91256 0.0212018 0)
(0.9298 0.0268214 0)
(0.946861 0.0270849 0)
(0.961377 0.0245647 0)
(0.974786 0.0200844 0)
(0.987593 0.0140002 0)
(0.999446 0.00675748 0)
(1.01016 -0.00136337 0)
(1.01982 -0.0102828 0)
(1.02847 -0.0199889 0)
(1.03609 -0.0304686 0)
(1.0426 -0.0417008 0)
(1.04791 -0.0536468 0)
(1.05192 -0.0662298 0)
(1.05455 -0.0793193 0)
(1.05568 -0.0927237 0)
(1.05541 -0.106234 0)
(0.906301 0.00535032 0)
(0.90959 0.0140384 0)
(0.923374 0.0179262 0)
(0.937769 0.0177746 0)
(0.950375 0.0151709 0)
(0.962153 0.0108412 0)
(0.973535 0.00509971 0)
(0.98419 -0.00173263 0)
(0.993864 -0.00941333 0)
(1.00255 -0.0178367 0)
(1.01029 -0.0269597 0)
(1.01705 -0.0367433 0)
(1.02274 -0.0471385 0)
(1.02731 -0.0580799 0)
(1.03068 -0.0694749 0)
(1.0328 -0.0811962 0)
(1.03361 -0.0930831 0)
(1.03324 -0.104973 0)
(0.906054 0.00288624 0)
(0.90744 0.00748556 0)
(0.918484 0.00921741 0)
(0.930493 0.00820999 0)
(0.941269 0.00528415 0)
(0.951491 0.000955443 0)
(0.961484 -0.00452624 0)
(0.970913 -0.0109459 0)
(0.979477 -0.0181225 0)
(0.987112 -0.0259486 0)
(0.993828 -0.0343616 0)
(0.999599 -0.0433046 0)
(1.00437 -0.0527121 0)
(1.0081 -0.0625057 0)
(1.01075 -0.0725906 0)
(1.01231 -0.0828536 0)
(1.01277 -0.0931666 0)
(1.01223 -0.10341 0)
(0.905889 0.00069212 0)
(0.905997 0.0014499 0)
(0.915075 0.000727939 0)
(0.925174 -0.00154293 0)
(0.934347 -0.00504226 0)
(0.943169 -0.0095102 0)
(0.951884 -0.0148019 0)
(0.960143 -0.0207964 0)
(0.967623 -0.0273836 0)
(0.974225 -0.0344814 0)
(0.979946 -0.042028 0)
(0.98477 -0.0499636 0)
(0.988666 -0.0582207 0)
(0.991613 -0.0667227 0)
(0.993606 -0.0753844 0)
(0.99466 -0.0841133 0)
(0.99479 -0.0928118 0)
(0.99409 -0.101397 0)
(0.905795 -0.00137829 0)
(0.90519 -0.004364 0)
(0.913133 -0.00775625 0)
(0.922027 -0.0116051 0)
(0.93007 -0.015888 0)
(0.937823 -0.0205959 0)
(0.945504 -0.025725 0)
(0.952772 -0.0312524 0)
(0.959304 -0.0371434 0)
(0.964995 -0.0433627 0)
(0.969845 -0.0498726 0)
(0.973856 -0.0566277 0)
(0.977018 -0.0635735 0)
(0.979332 -0.0706482 0)
(0.980819 -0.0777852 0)
(0.981511 -0.0849151 0)
(0.981447 -0.091969 0)
(0.980695 -0.098891 0)
(0.90578 -0.00364528 0)
(0.905127 -0.0107249 0)
(0.913025 -0.0170515 0)
(0.921811 -0.0226231 0)
(0.9296 -0.0277163 0)
(0.936946 -0.0326144 0)
(0.944121 -0.0374795 0)
(0.95083 -0.0423955 0)
(0.956773 -0.0474167 0)
(0.961867 -0.0525737 0)
(0.966141 -0.0578702 0)
(0.969626 -0.0632885 0)
(0.972341 -0.068798 0)
(0.974312 -0.0743598 0)
(0.975578 -0.0799303 0)
(0.976188 -0.0854637 0)
(0.976192 -0.0909148 0)
(0.975632 -0.0962464 0)
(0.905918 -0.00612846 0)
(0.906333 -0.0176138 0)
(0.91589 -0.0268346 0)
(0.926194 -0.0338156 0)
(0.934976 -0.0393651 0)
(0.942875 -0.0441602 0)
(0.950348 -0.0485256 0)
(0.957187 -0.0526505 0)
(0.963135 -0.0566925 0)
(0.968165 -0.0607559 0)
(0.972363 -0.0648852 0)
(0.975798 -0.0690885 0)
(0.978512 -0.0733556 0)
(0.980545 -0.0776645 0)
(0.981944 -0.0819849 0)
(0.982755 -0.0862819 0)
(0.983028 -0.0905189 0)
(0.982771 -0.0946641 0)
(0.906162 -0.00899694 0)
(0.908585 -0.0252577 0)
(0.921198 -0.0369399 0)
(0.934172 -0.0445612 0)
(0.9447 -0.0499732 0)
(0.953763 -0.0543034 0)
(0.96214 -0.0579605 0)
(0.969692 -0.0612274 0)
(0.976184 -0.064363 0)
(0.981644 -0.0675161 0)
(0.986194 -0.070737 0)
(0.98991 -0.0740323 0)
(0.99282 -0.0773901 0)
(0.994953 -0.080785 0)
(0.996345 -0.0841817 0)
(0.997033 -0.0875425 0)
(0.997058 -0.0908271 0)
(0.996428 -0.0940103 0)
(0.906646 -0.0129956 0)
(0.912784 -0.0351662 0)
(0.930505 -0.0487875 0)
(0.947429 -0.0561964 0)
(0.960424 -0.0609979 0)
(0.971324 -0.0646086 0)
(0.98124 -0.0673864 0)
(0.989927 -0.0697157 0)
(0.997092 -0.0719261 0)
(1.00279 -0.0741477 0)
(1.00716 -0.076397 0)
(1.01025 -0.0786659 0)
(1.01212 -0.0809386 0)
(1.01282 -0.0831898 0)
(1.01243 -0.0853884 0)
(1.01104 -0.0875058 0)
(1.00872 -0.0895107 0)
(1.00557 -0.0914049 0)
(0.907596 -0.0189941 0)
(0.92033 -0.0484909 0)
(0.945943 -0.0629518 0)
(0.968121 -0.0692112 0)
(0.984167 -0.0730501 0)
(0.997122 -0.0756045 0)
(1.00804 -0.0770677 0)
(1.01638 -0.0779712 0)
(1.02191 -0.0786863 0)
(1.0249 -0.0793132 0)
(1.02569 -0.0798758 0)
(1.02452 -0.0804021 0)
(1.02162 -0.0809102 0)
(1.01722 -0.0814012 0)
(1.01156 -0.0818662 0)
(1.00483 -0.0822952 0)
(0.997197 -0.0826701 0)
(0.988928 -0.0830148 0)
(0.909467 -0.028328 0)
(0.933674 -0.0663747 0)
(0.970573 -0.0798459 0)
(0.998169 -0.0839193 0)
(1.01538 -0.0859042 0)
(1.02668 -0.0860182 0)
(1.03314 -0.0846098 0)
(1.0346 -0.0826015 0)
(1.03175 -0.0804791 0)
(1.02561 -0.0783895 0)
(1.01705 -0.0764221 0)
(1.00665 -0.0746453 0)
(0.99491 -0.0730815 0)
(0.982204 -0.0717189 0)
(0.968841 -0.0705309 0)
(0.955068 -0.0694879 0)
(0.941024 -0.0685544 0)
(0.927041 -0.067736 0)
(0.913196 -0.042971 0)
(0.95619 -0.0894146 0)
(1.00508 -0.0987637 0)
(1.03134 -0.098308 0)
(1.03911 -0.0954405 0)
(1.03665 -0.0900255 0)
(1.02697 -0.0835141 0)
(1.01184 -0.0773214 0)
(0.993377 -0.071862 0)
(0.973299 -0.0671585 0)
(0.952595 -0.0631904 0)
(0.931812 -0.0598975 0)
(0.911285 -0.0571788 0)
(0.891223 -0.0549266 0)
(0.871739 -0.0530457 0)
(0.852902 -0.0514562 0)
(0.834691 -0.0500903 0)
(0.817349 -0.0489167 0)
(0.920924 -0.0660652 0)
(0.987512 -0.116376 0)
(1.035 -0.114639 0)
(1.03766 -0.104317 0)
(1.01539 -0.0923535 0)
(0.984476 -0.0795823 0)
(0.950511 -0.0684206 0)
(0.91612 -0.0597014 0)
(0.883186 -0.052996 0)
(0.852516 -0.0478058 0)
(0.824164 -0.043788 0)
(0.797947 -0.0406639 0)
(0.773648 -0.0382036 0)
(0.75106 -0.036235 0)
(0.729988 -0.0346342 0)
(0.710277 -0.0333082 0)
(0.691741 -0.0321892 0)
(0.674493 -0.0312326 0)
(0.933866 -0.100864 0)
(1.00702 -0.140816 0)
(1.01431 -0.115811 0)
(0.962302 -0.090689 0)
(0.897466 -0.0702142 0)
(0.839522 -0.0542924 0)
(0.789761 -0.043476 0)
(0.747019 -0.0363675 0)
(0.710378 -0.031431 0)
(0.678702 -0.0278522 0)
(0.6509 -0.0252072 0)
(0.626151 -0.0232105 0)
(0.603871 -0.021666 0)
(0.583624 -0.0204454 0)
(0.565076 -0.0194619 0)
(0.547979 -0.0186515 0)
(0.532101 -0.0179722 0)
(0.517481 -0.0173879 0)
(0.934322 -0.137836 0)
(0.953638 -0.144273 0)
(0.876158 -0.0900437 0)
(0.764625 -0.0561802 0)
(0.677941 -0.0369347 0)
(0.617924 -0.0261575 0)
(0.572689 -0.0204321 0)
(0.536432 -0.0169911 0)
(0.50667 -0.0145981 0)
(0.481646 -0.012875 0)
(0.46009 -0.0116206 0)
(0.441163 -0.0106807 0)
(0.424302 -0.00995611 0)
(0.409103 -0.00938534 0)
(0.395268 -0.0089266 0)
(0.382582 -0.00854797 0)
(0.370853 -0.00823218 0)
(0.360095 -0.00795542 0)
(0.846096 -0.134948 0)
(0.737825 -0.102384 0)
(0.588702 -0.0424143 0)
(0.469515 -0.0194421 0)
(0.405734 -0.0111401 0)
(0.36812 -0.00794713 0)
(0.339796 -0.0064595 0)
(0.3171 -0.0054075 0)
(0.298714 -0.00462364 0)
(0.283394 -0.00407628 0)
(0.270254 -0.00368573 0)
(0.258749 -0.00339224 0)
(0.24852 -0.00316522 0)
(0.239312 -0.00298634 0)
(0.230938 -0.00284232 0)
(0.223265 -0.00272225 0)
(0.216175 -0.00262325 0)
(0.20968 -0.00253125 0)
(0.496133 -0.053487 0)
(0.30942 -0.0227642 0)
(0.207573 -0.00319645 0)
(0.154206 -0.000665232 0)
(0.134909 -0.000592888 0)
(0.123239 -0.000564747 0)
(0.113556 -0.000486962 0)
(0.105794 -0.000399383 0)
(0.0995793 -0.000340311 0)
(0.0944048 -0.000304091 0)
(0.0899553 -0.000277971 0)
(0.0860516 -0.000257451 0)
(0.0825751 -0.000241343 0)
(0.0794404 -0.000228519 0)
(0.0765852 -0.000218108 0)
(0.0739665 -0.000208694 0)
(0.0715435 -0.000202959 0)
(0.0693267 -0.000192828 0)
(-0.00010919 0.000245238 1.36173e-20)
(-0.000958232 0.000693668 -1.6922e-20)
(-0.00247622 0.00102588 0)
(-0.00449027 0.00123341 0)
(-0.00677474 0.00135016 0)
(-0.00917939 0.00140566 1.67537e-20)
(-0.0116089 0.00142183 0)
(-0.0140005 0.00141373 0)
(-0.016312 0.00139056 0)
(-0.0185142 0.00135713 0)
(-0.020585 0.00131541 -1.65958e-20)
(-0.022506 0.0012657 0)
(-0.0242597 0.00120741 0)
(-0.0258285 0.00113962 0)
(-0.0271941 0.00106136 0)
(-0.0283377 0.000971873 -1.65836e-20)
(-0.0292398 0.000870641 0)
(-0.0298812 0.000757472 0)
(-0.030243 0.000632789 0)
(-0.0303076 0.000497561 0)
(-0.0300601 0.000352931 0)
(-0.0294882 0.000200492 0)
(-0.0285829 4.22329e-05 0)
(-0.0273391 -0.000119518 -1.69173e-20)
(-0.0257563 -0.000282183 1.69904e-20)
(-0.0238381 -0.000443064 -1.70701e-20)
(-0.0215932 -0.000599369 -1.71557e-20)
(-0.0190347 -0.000748683 0)
(-0.0161794 -0.000889065 0)
(-0.0130485 -0.00101813 1.74409e-20)
(-0.00966743 -0.0011339 1.75426e-20)
(-0.00606409 -0.00123465 0)
(-0.00226959 -0.00131886 0)
(0.00168355 -0.00138587 1.75272e-20)
(0.00576172 -0.00143556 0)
(0.00993013 -0.00146822 0)
(0.014155 -0.0014846 -1.7304e-20)
(0.0184035 -0.00148568 0)
(0.0226444 -0.0014727 -1.71363e-20)
(0.0268486 -0.00144709 -3.40964e-20)
(0.0309893 -0.00141041 0)
(0.0350427 -0.00136427 0)
(0.0389876 -0.00131032 0)
(0.042806 -0.00125015 0)
(0.0464829 -0.00118529 0)
(0.050006 -0.00111717 -3.29656e-20)
(0.0533662 -0.00104709 -3.27704e-20)
(0.0565568 -0.000976214 -3.25745e-20)
(0.0595736 -0.000905541 0)
(0.0624145 -0.000835938 3.21816e-20)
(0.0650796 -0.000768116 0)
(0.0675706 -0.000702653 -3.17888e-20)
(0.0698906 -0.000639994 -3.15928e-20)
(0.0720441 -0.00058047 0)
(0.0740365 -0.000524308 0)
(0.0758739 -0.000471645 0)
(0.0775633 -0.000422542 -3.08136e-20)
(0.0791117 -0.000376997 0)
(0.0805269 -0.000334954 0)
(0.0818163 -0.000296317 0)
(0.0829877 -0.000260958 0)
(0.0840487 -0.000228725 0)
(0.0850069 -0.000199452 0)
(0.0858694 -0.000172959 0)
(0.0866432 -0.000149065 0)
(0.0873352 -0.000127584 2.90903e-20)
(0.0879518 -0.000108334 0)
(0.0884989 -9.1137e-05 0)
(0.0889823 -7.58215e-05 -2.85223e-20)
(0.0894075 -6.22231e-05 -2.83334e-20)
(0.0897794 -5.01857e-05 0)
(0.0901027 -3.95618e-05 2.79559e-20)
(0.0903818 -3.02119e-05 -2.77673e-20)
(0.0906208 -2.20037e-05 0)
(0.0908233 -1.48097e-05 2.73901e-20)
(0.0909927 -8.50129e-06 0)
(0.0911323 -2.92611e-06 0)
(0.091245 2.118e-06 -2.68243e-20)
(0.0913342 6.54864e-06 0)
(0.0914013 9.31604e-06 2.64462e-20)
(0.0914481 1.15102e-05 0)
(0.0914772 1.35455e-05 -2.60674e-20)
(0.0914906 1.53472e-05 -2.5878e-20)
(0.0914899 1.68633e-05 -2.56884e-20)
(0.0914767 1.81039e-05 -5.09975e-20)
(0.0914522 1.90978e-05 5.06181e-20)
(0.0914177 1.98709e-05 0)
(0.0913743 2.04485e-05 0)
(0.0913229 2.08556e-05 0)
(0.0912645 2.11158e-05 4.9098e-20)
(0.0911999 2.12496e-05 4.87174e-20)
(0.0911298 2.12753e-05 -4.83365e-20)
(0.0910548 2.12093e-05 0)
(0.0909755 2.10668e-05 4.75742e-20)
(0.0908924 2.08618e-05 4.71927e-20)
(0.090806 2.06066e-05 4.68111e-20)
(0.0907167 2.03118e-05 0)
(0.0906248 1.99857e-05 0)
(0.0905307 1.96355e-05 0)
(0.0904346 1.92668e-05 4.52827e-20)
(0.0903368 1.88849e-05 0)
(0.0902374 1.84942e-05 0)
(0.0901367 1.80987e-05 -4.41351e-20)
(0.0900348 1.77019e-05 0)
(0.0899319 1.73067e-05 0)
(0.0898281 1.69158e-05 -4.29869e-20)
(0.0897235 1.65311e-05 0)
(0.0896182 1.61545e-05 0)
(0.0895123 1.57875e-05 4.18388e-20)
(0.0894058 1.54311e-05 4.14562e-20)
(0.0892987 1.50862e-05 0)
(0.0891912 1.47536e-05 -4.06913e-20)
(0.0890833 1.44336e-05 0)
(0.0889749 1.41268e-05 3.99269e-20)
(0.0888661 1.38332e-05 0)
(0.088757 1.35532e-05 3.91632e-20)
(0.0886474 1.32869e-05 3.87818e-20)
(0.0885375 1.30344e-05 0)
(0.0884272 1.2796e-05 0)
(0.0883165 1.25713e-05 0)
(0.0882054 1.23596e-05 0)
(0.0880939 1.21597e-05 0)
(0.087982 1.19698e-05 0)
(0.0878696 1.17883e-05 0)
(0.0877568 1.16142e-05 3.57412e-20)
(0.0876435 1.14473e-05 -3.53629e-20)
(0.0875298 1.12879e-05 0)
(0.0874155 1.11366e-05 0)
(0.0873008 1.09941e-05 0)
(0.0871855 1.08607e-05 0)
(0.0870697 1.07365e-05 -6.69584e-20)
(0.0869533 1.06214e-05 0)
(0.0868363 1.0515e-05 6.54594e-20)
(0.0867187 1.0417e-05 -6.47118e-20)
(0.0866004 1.03272e-05 0)
(0.0864813 1.0245e-05 0)
(0.0863616 1.01702e-05 0)
(0.086241 1.01021e-05 6.1735e-20)
(0.0861197 1.00401e-05 6.09944e-20)
(0.0859975 9.98372e-06 0)
(0.0858745 9.93216e-06 5.95179e-20)
(0.0857506 9.8849e-06 5.8782e-20)
(0.0856258 9.84173e-06 -5.80479e-20)
(0.0855 9.80276e-06 0)
(0.0853733 9.76852e-06 0)
(0.0852457 9.73979e-06 -5.58559e-20)
(0.085117 9.71747e-06 0)
(0.0849872 9.70261e-06 0)
(0.0848563 9.6962e-06 0)
(0.0847242 9.69946e-06 0)
(0.0845908 9.71393e-06 5.22401e-20)
(0.084456 9.74156e-06 5.15229e-20)
(0.0843197 9.78487e-06 0)
(0.0841819 9.84733e-06 5.00948e-20)
(0.0840422 9.93316e-06 0)
(0.0839006 1.00479e-05 0)
(0.0837569 1.01983e-05 4.79691e-20)
(0.0836106 1.03931e-05 0)
(0.0834616 1.06432e-05 4.65635e-20)
(0.0833092 1.09624e-05 0)
(0.0831529 1.13682e-05 0)
(0.082992 1.1883e-05 4.44734e-20)
(0.0828256 1.2535e-05 0)
(0.0826524 1.3361e-05 4.30932e-20)
(0.0824709 1.4408e-05 0)
(0.0822793 1.57369e-05 0)
(0.0820748 1.74281e-05 0)
(0.0818544 1.95873e-05 -4.03692e-20)
(0.0816136 2.2356e-05 0)
(0.0813468 2.59276e-05 3.90289e-20)
(0.0810464 3.05685e-05 0)
(0.0807022 3.66651e-05 0)
(0.0803001 4.47616e-05 0)
(0.0798202 5.58249e-05 0)
(0.0792348 7.0915e-05 0)
(0.0784953 9.45445e-05 0)
(0.0775531 0.000124414 0)
(0.0761607 0.000222476 -6.7885e-20)
(0.0747137 0.000238866 0)
(0.0686273 0.0011954 0)
(-0.000261528 0.00195049 -4.26432e-20)
(-0.00210545 0.00491558 5.34518e-20)
(-0.00505754 0.00694929 0)
(-0.0087854 0.00817115 -3.53001e-20)
(-0.0129051 0.00877414 0)
(-0.0171633 0.00894007 -1.74957e-20)
(-0.0213924 0.00881097 3.4838e-20)
(-0.0254758 0.00848729 3.47144e-20)
(-0.0293308 0.00803486 0)
(-0.0328977 0.00749366 3.45276e-20)
(-0.0361314 0.00688589 1.72422e-20)
(-0.0389951 0.00622244 0)
(-0.0414565 0.00550766 0)
(-0.0434853 0.00474267 0)
(-0.0450518 0.00392754 0)
(-0.0461275 0.00306271 1.72833e-20)
(-0.0466844 0.00214984 0)
(-0.0466957 0.00119248 -3.47425e-20)
(-0.0461378 0.00019534 0)
(-0.0449902 -0.000834308 0)
(-0.0432358 -0.00188689 3.51627e-20)
(-0.0408635 -0.00295145 0)
(-0.0378679 -0.00401579 -3.55861e-20)
(-0.0342502 -0.00506682 1.79331e-20)
(-0.0300189 -0.00609101 -1.80762e-20)
(-0.0251891 -0.00707517 1.82339e-20)
(-0.0197835 -0.00800649 1.84057e-20)
(-0.0138306 -0.00887313 0)
(-0.00736837 -0.00966411 0)
(-0.000438394 -0.0103684 -1.84577e-20)
(0.00691166 -0.0109787 1.83002e-20)
(0.0146284 -0.011489 0)
(0.0226568 -0.0118957 0)
(0.0309393 -0.0121975 -1.78589e-20)
(0.0394174 -0.0123955 0)
(0.0480329 -0.0124926 0)
(0.0567286 -0.0124937 1.738e-20)
(0.0654493 -0.0124049 0)
(0.0741423 -0.0122337 -1.70522e-20)
(0.0827584 -0.0119882 3.38044e-20)
(0.0912522 -0.0116774 0)
(0.0995826 -0.0113104 0)
(0.107713 -0.0108963 6.57516e-20)
(0.115612 -0.0104444 6.51595e-20)
(0.123252 -0.00996319 6.458e-20)
(0.130611 -0.00946102 -3.20005e-20)
(0.137671 -0.00894547 3.17364e-20)
(0.144417 -0.00842343 9.4388e-20)
(0.150842 -0.00790108 -6.23956e-20)
(0.156938 -0.00738378 -3.09475e-20)
(0.162704 -0.00687614 0)
(0.168139 -0.00638202 3.04549e-20)
(0.173247 -0.00590457 -3.02074e-20)
(0.178035 -0.00544624 0)
(0.182508 -0.00500892 0)
(0.186677 -0.00459391 0)
(0.190552 -0.00420205 2.93285e-20)
(0.194145 -0.00383374 0)
(0.197467 -0.00348904 -5.782e-20)
(0.200533 -0.00316771 0)
(0.203354 -0.00286924 -5.7027e-20)
(0.205944 -0.00259295 0)
(0.208318 -0.002338 5.6264e-20)
(0.210487 -0.00210343 0)
(0.212465 -0.00188821 -5.55265e-20)
(0.214264 -0.00169125 2.75801e-20)
(0.215897 -0.00151145 0)
(0.217375 -0.00134769 5.44595e-20)
(0.218709 -0.00119886 2.70587e-20)
(0.219911 -0.0010639 2.68869e-20)
(0.22099 -0.000941745 0)
(0.221955 -0.000831399 2.6544e-20)
(0.222816 -0.000731902 2.63806e-20)
(0.223581 -0.000642343 0)
(0.224257 -0.000561864 -2.60491e-20)
(0.224853 -0.000489654 5.17666e-20)
(0.225374 -0.000424946 0)
(0.225828 -0.000366997 2.55584e-20)
(0.22622 -0.000315174 0)
(0.226554 -0.000269575 -7.56991e-20)
(0.226838 -0.000229248 0)
(0.227074 -0.000193395 7.47272e-20)
(0.227268 -0.000161562 2.47472e-20)
(0.227423 -0.000133396 -2.45835e-20)
(0.227542 -0.000108545 -4.88434e-20)
(0.227629 -8.66613e-05 4.85204e-20)
(0.227686 -6.74361e-05 0)
(0.227717 -5.05907e-05 0)
(0.227725 -3.58721e-05 0)
(0.22771 -2.30524e-05 -1.41693e-19)
(0.227676 -1.19272e-05 -4.69086e-20)
(0.227623 -2.31317e-06 4.65855e-20)
(0.227555 5.95578e-06 0)
(0.227472 1.30327e-05 4.59369e-20)
(0.227376 1.90591e-05 -4.56144e-20)
(0.227267 2.4165e-05 -4.52899e-20)
(0.227148 2.84671e-05 0)
(0.227019 3.20666e-05 0)
(0.226882 3.5051e-05 0)
(0.226736 3.74951e-05 -4.39877e-20)
(0.226583 3.94648e-05 0)
(0.226423 4.10186e-05 8.66664e-20)
(0.226257 4.22101e-05 1.29016e-19)
(0.226086 4.30877e-05 -8.53539e-20)
(0.225909 4.36954e-05 0)
(0.225729 4.40724e-05 -4.20183e-20)
(0.225544 4.4253e-05 0)
(0.225355 4.42673e-05 -8.27157e-20)
(0.225162 4.41412e-05 4.10265e-20)
(0.224967 4.38972e-05 4.06948e-20)
(0.224768 4.3555e-05 0)
(0.224566 4.31321e-05 1.2009e-19)
(0.224362 4.26439e-05 -7.93934e-20)
(0.224156 4.21043e-05 -3.9363e-20)
(0.223947 4.15255e-05 0)
(0.223736 4.09184e-05 -3.8694e-20)
(0.223523 4.02931e-05 -1.15076e-19)
(0.223308 3.96579e-05 0)
(0.223091 3.90207e-05 -7.53736e-20)
(0.222872 3.83873e-05 -7.47006e-20)
(0.222652 3.77622e-05 -7.40267e-20)
(0.22243 3.71474e-05 0)
(0.222206 3.65435e-05 0)
(0.22198 3.59503e-05 0)
(0.221753 3.53678e-05 3.56621e-20)
(0.221524 3.4798e-05 3.53236e-20)
(0.221293 3.42434e-05 0)
(0.221061 3.37081e-05 6.92913e-20)
(0.220827 3.31962e-05 6.86126e-20)
(0.220591 3.27109e-05 0)
(0.220354 3.2255e-05 6.72541e-20)
(0.220115 3.18297e-05 1.33148e-19)
(0.219874 3.14362e-05 -6.58941e-20)
(0.219631 3.10745e-05 -6.52136e-20)
(0.219387 3.07444e-05 0)
(0.219141 3.0445e-05 0)
(0.218893 3.0175e-05 0)
(0.218643 2.99316e-05 -6.24903e-20)
(0.218391 2.97121e-05 6.18092e-20)
(0.218137 2.95135e-05 1.22256e-19)
(0.217882 2.93334e-05 -6.04472e-20)
(0.217624 2.91709e-05 5.97662e-20)
(0.217364 2.90272e-05 5.90855e-20)
(0.217102 2.89065e-05 0)
(0.216838 2.88147e-05 0)
(0.216572 2.87597e-05 -5.70444e-20)
(0.216303 2.87495e-05 0)
(0.216032 2.87926e-05 0)
(0.215758 2.88969e-05 1.10013e-19)
(0.215482 2.90713e-05 0)
(0.215202 2.93264e-05 5.36499e-20)
(0.21492 2.96758e-05 -5.29726e-20)
(0.214635 3.01371e-05 0)
(0.214346 3.07341e-05 5.16194e-20)
(0.214053 3.14972e-05 0)
(0.213756 3.24658e-05 0)
(0.213454 3.36896e-05 -4.95954e-20)
(0.213147 3.52319e-05 9.78445e-20)
(0.212834 3.71725e-05 -4.82502e-20)
(0.212514 3.9613e-05 0)
(0.212186 4.26818e-05 0)
(0.211848 4.65431e-05 4.62401e-20)
(0.211498 5.14068e-05 0)
(0.211135 5.75433e-05 4.49066e-20)
(0.210754 6.53019e-05 0)
(0.210352 7.51371e-05 0)
(0.209923 8.76457e-05 0)
(0.209461 0.000103617 4.22608e-20)
(0.208957 0.00012411 0)
(0.208399 0.00015056 -4.0953e-20)
(0.207771 0.000184956 0)
(0.207053 0.000230118 0)
(0.206215 0.000290134 7.80447e-20)
(0.205216 0.000371372 -7.67822e-20)
(0.204001 0.000483473 0)
(0.202472 0.000646036 0)
(0.200541 0.000886034 0)
(0.19776 0.00131909 2.15891e-19)
(0.194869 0.00208141 0)
(0.185585 0.00386921 -1.39362e-19)
(-0.000309719 0.00453053 3.01703e-23)
(-0.00253337 0.0108353 -7.09423e-20)
(-0.00602393 0.0149041 0)
(-0.0103679 0.0172352 7.00705e-20)
(-0.0151075 0.018288 0)
(-0.0199499 0.0184382 0)
(-0.0247029 0.0179701 -4.02225e-23)
(-0.0292312 0.0170852 -3.44151e-20)
(-0.0334377 0.0159188 -3.4277e-20)
(-0.0372514 0.0145567 -3.42495e-20)
(-0.0406185 0.0130496 0)
(-0.0434957 0.0114258 0)
(-0.0458458 0.00969987 3.4176e-20)
(-0.0476347 0.00787877 6.84573e-20)
(-0.0488302 0.00596681 -6.86299e-20)
(-0.0494014 0.00396828 0)
(-0.0493191 0.0018896 -6.91077e-20)
(-0.0485565 -0.000261389 3.4697e-20)
(-0.0470889 -0.0024724 0)
(-0.0448961 -0.00472719 -6.98784e-20)
(-0.0419632 -0.0070064 -3.51738e-20)
(-0.0382813 -0.00928781 7.07328e-20)
(-0.0338488 -0.0115471 3.567e-20)
(-0.028671 -0.0137584 0)
(-0.0227634 -0.0158961 -7.25687e-20)
(-0.0161451 -0.0179362 -7.32634e-20)
(-0.0088482 -0.0198522 0)
(-0.000911511 -0.0216192 -7.2605e-20)
(0.00761946 -0.0232184 0)
(0.0166914 -0.0246317 -7.11937e-20)
(0.0262467 -0.0258452 -3.52411e-20)
(0.0362236 -0.0268496 0)
(0.0465571 -0.02764 0)
(0.0571808 -0.0282154 0)
(0.0680273 -0.0285788 0)
(0.0790298 -0.028737 0)
(0.0901231 -0.0286997 0)
(0.101244 -0.0284795 -6.52113e-20)
(0.112333 -0.0280911 9.6734e-20)
(0.123335 -0.0275507 0)
(0.134196 -0.0268757 0)
(0.144872 -0.026084 0)
(0.155318 -0.0251939 -4.80859e-25)
(0.1655 -0.0242231 -6.11119e-20)
(0.175384 -0.0231888 -1.20976e-19)
(0.184944 -0.0221074 1.19766e-19)
(0.194158 -0.0209942 5.92948e-20)
(0.203009 -0.019863 -5.87288e-20)
(0.211483 -0.0187265 4.06905e-24)
(0.219571 -0.0175958 -5.76385e-20)
(0.227269 -0.0164807 0)
(0.234575 -0.0153894 -5.66178e-20)
(0.241489 -0.0143288 6.13641e-24)
(0.248016 -0.0133046 0)
(0.254162 -0.0123212 0)
(0.259935 -0.011382 5.47562e-20)
(0.265346 -0.0104893 0)
(0.270405 -0.0096445 0)
(0.275126 -0.00884838 -5.34887e-20)
(0.279522 -0.00810097 -1.06196e-19)
(0.283607 -0.00740175 5.27174e-20)
(0.287395 -0.00674978 0)
(0.290901 -0.0061437 -5.19687e-20)
(0.294139 -0.00558191 0)
(0.297126 -0.00506254 -5.12392e-20)
(0.299874 -0.00458359 -5.09048e-20)
(0.302399 -0.00414295 1.01115e-19)
(0.304713 -0.00373845 5.02166e-20)
(0.306831 -0.00336789 0)
(0.308766 -0.00302908 -9.91364e-20)
(0.310529 -0.00271989 0)
(0.312133 -0.00243822 -1.46801e-19)
(0.313589 -0.00218204 -9.72396e-20)
(0.314907 -0.00194943 -9.66218e-20)
(0.316098 -0.00173855 9.60101e-20)
(0.31717 -0.00154765 -1.4311e-19)
(0.318134 -0.0013751 0)
(0.318997 -0.00121939 0)
(0.319767 -0.00107907 9.36122e-20)
(0.320451 -0.000952431 1.39537e-19)
(0.321057 -0.000838504 0)
(0.32159 -0.000736234 -4.59271e-20)
(0.322057 -0.000644529 0)
(0.322462 -0.000562388 1.36015e-19)
(0.322811 -0.000488905 4.47148e-24)
(0.323108 -0.000423273 -4.17245e-24)
(0.323358 -0.000364734 -8.89131e-20)
(0.323565 -0.000312587 0)
(0.323732 -0.000266193 8.7747e-20)
(0.323862 -0.000224976 3.135e-24)
(0.323959 -0.000188416 0)
(0.324026 -0.000156044 0)
(0.324065 -0.000127436 0)
(0.324078 -0.000102202 -8.48484e-20)
(0.324068 -7.99882e-05 0)
(0.324037 -6.0469e-05 0)
(0.323986 -4.33493e-05 0)
(0.323917 -2.83642e-05 0)
(0.323832 -1.52784e-05 0)
(0.323732 -3.88385e-06 -8.13643e-20)
(0.323618 6.00436e-06 0)
(0.323491 1.45513e-05 -8.02003e-20)
(0.323353 2.1906e-05 -7.96163e-20)
(0.323205 2.82028e-05 7.90314e-20)
(0.323047 3.35638e-05 0)
(0.32288 3.80985e-05 7.78589e-20)
(0.322704 4.19056e-05 0)
(0.322521 4.50726e-05 7.66822e-20)
(0.322331 4.76777e-05 -7.60923e-20)
(0.322135 4.97903e-05 -2.26503e-19)
(0.321932 5.14722e-05 0)
(0.321725 5.27787e-05 -2.22947e-19)
(0.321511 5.37595e-05 -7.37206e-20)
(0.321293 5.4459e-05 0)
(0.321071 5.49174e-05 -1.45058e-19)
(0.320844 5.51702e-05 -1.43863e-19)
(0.320614 5.52495e-05 2.13999e-19)
(0.320379 5.51837e-05 0)
(0.320141 5.49982e-05 7.01323e-20)
(0.3199 5.47146e-05 6.95303e-20)
(0.319655 5.43518e-05 2.06781e-19)
(0.319407 5.39248e-05 0)
(0.319157 5.34455e-05 0)
(0.318903 5.29239e-05 0)
(0.318647 5.23685e-05 6.65051e-20)
(0.318387 5.17883e-05 0)
(0.318126 5.11923e-05 0)
(0.317861 5.05901e-05 -6.46797e-20)
(0.317594 4.9991e-05 -6.40694e-20)
(0.317324 4.94029e-05 0)
(0.317052 4.88328e-05 0)
(0.316777 4.8286e-05 -1.24468e-19)
(0.3165 4.77666e-05 0)
(0.31622 4.72775e-05 1.22014e-19)
(0.315938 4.68205e-05 1.20785e-19)
(0.315653 4.63969e-05 0)
(0.315366 4.6007e-05 0)
(0.315076 4.56501e-05 -1.17091e-19)
(0.314783 4.53255e-05 -1.83335e-25)
(0.314488 4.50323e-05 -1.81386e-25)
(0.31419 4.47703e-05 0)
(0.31389 4.45419e-05 -2.24308e-19)
(0.313587 4.43517e-05 0)
(0.313281 4.42081e-05 0)
(0.312972 4.41229e-05 0)
(0.31266 4.41102e-05 1.07206e-19)
(0.312345 4.41858e-05 0)
(0.312027 4.43672e-05 -2.09461e-19)
(0.311706 4.46724e-05 -1.03492e-19)
(0.311381 4.51223e-05 0)
(0.311053 4.5742e-05 -1.01016e-19)
(0.310721 4.65625e-05 0)
(0.310385 4.76241e-05 0)
(0.310044 4.89787e-05 -2.91905e-19)
(0.309699 5.06931e-05 1.92129e-19)
(0.309348 5.28526e-05 0)
(0.308992 5.55654e-05 1.87182e-19)
(0.308629 5.89691e-05 -9.23558e-20)
(0.308258 6.32378e-05 0)
(0.307879 6.85924e-05 0)
(0.30749 7.53135e-05 0)
(0.30709 8.37597e-05 -2.62268e-19)
(0.306675 9.43896e-05 0)
(0.306243 0.000107794 -8.49647e-20)
(0.30579 0.000124736 0)
(0.305311 0.00014621 0)
(0.304801 0.000173519 0)
(0.30425 0.000208387 0)
(0.303648 0.000253118 0)
(0.302982 0.000310839 0)
(0.302232 0.000385854 -1.52899e-19)
(0.301373 0.000484236 0)
(0.300372 0.000614744 -7.40697e-20)
(0.299179 0.000790645 2.18677e-19)
(0.297731 0.00103239 0)
(0.295919 0.00137608 0)
(0.293652 0.00188219 -1.38924e-19)
(0.290461 0.00269162 -1.36747e-19)
(0.287191 0.00413768 1.3457e-19)
(0.27831 0.0064808 1.32297e-19)
(-0.0003154 0.00736082 8.48552e-20)