/*--------------------------------*- C++ -*----------------------------------*\
  =========                 |
  \\      /  F ield         | OpenFOAM: The Open Source CFD Toolbox
   \\    /   O peration     | Website:  https://openfoam.org
    \\  /    A nd           | Version:  8
     \\/     M anipulation  |
\*---------------------------------------------------------------------------*/
FoamFile
{
    version     2.0;
    format      ascii;
    class       volScalarField;
    location    "0.6";
    object      p;
}
// * * * * * * * * * * * * * * * * * * * * * * * * * * * * * * * * * * * * * //

dimensions      [0 2 -2 0 0 0 0];

internalField   nonuniform List<scalar> 
12225
(
-0.00699114
-0.00695958
-0.00692729
-0.00690138
-0.00688857
-0.00689244
-0.00691622
-0.00696302
-0.00703639
-0.00714084
-0.00728302
-0.00747355
-0.00773071
-0.00808788
-0.00860799
-0.00941291
-0.01084
-0.0143158
-0.00699073
-0.00696252
-0.0069336
-0.00691092
-0.00690122
-0.00690813
-0.00693497
-0.0069849
-0.00706154
-0.00716951
-0.0073155
-0.00751004
-0.0077707
-0.00812808
-0.00863564
-0.00938843
-0.0105699
-0.0129172
-0.00699155
-0.00696638
-0.0069412
-0.00692222
-0.00691611
-0.00692651
-0.00695681
-0.0070102
-0.00709033
-0.00720182
-0.0073512
-0.00754849
-0.00780956
-0.00816021
-0.00864052
-0.00930959
-0.0102055
-0.0116798
-0.00699391
-0.00697079
-0.00694876
-0.00693314
-0.00693031
-0.0069439
-0.00697726
-0.00703358
-0.00711642
-0.0072302
-0.00738101
-0.00757771
-0.00783344
-0.00816755
-0.00860541
-0.00917404
-0.00984015
-0.0107638
-0.00699769
-0.00697571
-0.00695623
-0.0069436
-0.00694373
-0.00696015
-0.00699612
-0.00705476
-0.00713942
-0.00725417
-0.00740428
-0.00759697
-0.00784193
-0.00815153
-0.00853755
-0.00900337
-0.00949217
-0.0100639
-0.00700266
-0.00698112
-0.00696367
-0.0069537
-0.00695647
-0.00697537
-0.00701352
-0.00707386
-0.00715946
-0.00727382
-0.00742119
-0.00760675
-0.00783653
-0.0081162
-0.0084467
-0.00881616
-0.00916525
-0.00950453
-0.00700859
-0.00698692
-0.00697097
-0.0069633
-0.00696837
-0.00698936
-0.00702921
-0.00709058
-0.00717618
-0.0072888
-0.00743145
-0.00760718
-0.00781841
-0.00806514
-0.00834056
-0.00862465
-0.00886505
-0.00905355
-0.00701513
-0.00699289
-0.00697796
-0.00697219
-0.00697918
-0.00700184
-0.00704283
-0.00710453
-0.00718914
-0.00729869
-0.00743486
-0.00759858
-0.00778907
-0.00800196
-0.00822573
-0.00843758
-0.00859596
-0.00868998
-0.00702185
-0.00699875
-0.0069844
-0.00698014
-0.00698865
-0.0070125
-0.00705406
-0.00711535
-0.00719804
-0.0073033
-0.00743152
-0.0075817
-0.00775047
-0.00793048
-0.00810799
-0.00826111
-0.00835942
-0.00839587
-0.00702821
-0.00700413
-0.00699
-0.00698689
-0.00699649
-0.00702107
-0.00706262
-0.00712279
-0.00720268
-0.00730264
-0.00742184
-0.00755767
-0.00770488
-0.0078544
-0.00799217
-0.00809921
-0.00815476
-0.00815698
-0.0070336
-0.00700855
-0.00699443
-0.00699213
-0.00700243
-0.00702725
-0.00706823
-0.00712662
-0.00720297
-0.00729687
-0.00740646
-0.00752788
-0.00765466
-0.00777705
-0.00788186
-0.00795376
-0.00797958
-0.00796207
-0.00703707
-0.00701124
-0.00699705
-0.00699522
-0.00700582
-0.00703044
-0.00707042
-0.00712664
-0.00719924
-0.00728718
-0.00738786
-0.00749665
-0.00760644
-0.00770753
-0.007788
-0.0078357
-0.00784246
-0.00781424
-0.00703842
-0.00701265
-0.00699833
-0.00699685
-0.00700755
-0.00703168
-0.00707031
-0.00712401
-0.00719249
-0.00727426
-0.00736614
-0.00746302
-0.00755763
-0.00764077
-0.00770214
-0.00773241
-0.007727
-0.00769226
-0.00703669
-0.00701187
-0.00699764
-0.00699641
-0.007007
-0.00703021
-0.00706688
-0.00711728
-0.00718077
-0.00725544
-0.00733776
-0.00742239
-0.00750226
-0.00756903
-0.00761416
-0.00763091
-0.00761721
-0.00757875
-0.0070296
-0.00700691
-0.00699344
-0.00699251
-0.00700271
-0.0070245
-0.00705849
-0.00710474
-0.00716238
-0.00722927
-0.00730176
-0.00737461
-0.00744122
-0.00749433
-0.00752705
-0.00753456
-0.00751598
-0.00747583
-0.00701382
-0.00699503
-0.00698362
-0.00698328
-0.00699287
-0.00701265
-0.00704315
-0.00708435
-0.00713534
-0.00719401
-0.00725687
-0.00731906
-0.0073747
-0.00741754
-0.00744197
-0.00744428
-0.00742366
-0.00738293
-0.0069853
-0.00697288
-0.00696555
-0.00696647
-0.0069753
-0.00699245
-0.00701853
-0.00705365
-0.00709709
-0.00714706
-0.0072005
-0.00725316
-0.00729994
-0.00733544
-0.00735478
-0.0073546
-0.00733343
-0.00729205
-0.00694059
-0.00693743
-0.00693658
-0.00693966
-0.00694756
-0.00696127
-0.00698169
-0.00700926
-0.00704368
-0.00708367
-0.00712681
-0.00716959
-0.00720764
-0.0072362
-0.00725078
-0.00724766
-0.0072243
-0.00717994
-0.00688104
-0.00688932
-0.00689628
-0.00690148
-0.00690726
-0.00691547
-0.00692744
-0.00694404
-0.00696556
-0.00699144
-0.00702014
-0.00704903
-0.00707456
-0.00709257
-0.00709873
-0.00708879
-0.00705876
-0.00700616
-0.0068372
-0.00685467
-0.00686756
-0.00687368
-0.00687631
-0.00687761
-0.00687886
-0.00688101
-0.00688459
-0.00688953
-0.00689503
-0.00689947
-0.00690041
-0.00689482
-0.00687935
-0.00685052
-0.0068044
-0.00673768
-0.00681735
-0.0068394
-0.00685515
-0.00686166
-0.00686247
-0.00685947
-0.00685364
-0.00684568
-0.006836
-0.0068246
-0.00681097
-0.00679397
-0.00677187
-0.00674246
-0.00670324
-0.00665153
-0.00658402
-0.00649757
-0.00681385
-0.00683741
-0.00685427
-0.0068613
-0.0068616
-0.00685643
-0.00684628
-0.00683145
-0.00681202
-0.00678781
-0.0067583
-0.00672261
-0.00667944
-0.0066272
-0.00656413
-0.00648838
-0.00639758
-0.00628908
-0.00682068
-0.00684376
-0.00686084
-0.0068689
-0.00687005
-0.00686475
-0.00685299
-0.00683462
-0.00680934
-0.0067767
-0.006736
-0.00668639
-0.00662679
-0.00655598
-0.00647272
-0.00637582
-0.00626385
-0.00613504
-0.00683242
-0.00685408
-0.00687129
-0.00688108
-0.00688425
-0.00688049
-0.00686932
-0.0068502
-0.0068225
-0.00678542
-0.00673808
-0.00667948
-0.00660859
-0.00652436
-0.00642586
-0.0063123
-0.00618304
-0.00603717
-0.00684512
-0.00686529
-0.00688311
-0.00689535
-0.00690142
-0.00690036
-0.00689133
-0.0068735
-0.00684593
-0.00680754
-0.00675722
-0.00669379
-0.00661613
-0.00652323
-0.00641426
-0.00628869
-0.00614633
-0.00598712
-0.00685632
-0.00687557
-0.00689476
-0.00691007
-0.00691962
-0.00692197
-0.00691605
-0.00690081
-0.00687508
-0.00683758
-0.00678694
-0.00672179
-0.00664086
-0.00654306
-0.00642757
-0.00629393
-0.00614221
-0.00597295
-0.00686477
-0.00688407
-0.00690553
-0.00692438
-0.00693772
-0.00694383
-0.00694152
-0.00692962
-0.00690682
-0.00687163
-0.00682248
-0.00675778
-0.00667607
-0.00657614
-0.00645708
-0.00631841
-0.00616025
-0.00598355
-0.00686993
-0.00689062
-0.00691525
-0.00693803
-0.00695533
-0.00696537
-0.00696693
-0.00695881
-0.00693961
-0.00690768
-0.00686125
-0.00679852
-0.00671782
-0.00661774
-0.00649725
-0.00635578
-0.00619338
-0.0060111
-0.00687194
-0.00689529
-0.00692396
-0.0069509
-0.00697221
-0.00698619
-0.00699171
-0.00698759
-0.00697238
-0.00694432
-0.00690144
-0.00684172
-0.00676328
-0.0066645
-0.00654415
-0.00640152
-0.00623652
-0.00605016
-0.00687163
-0.00689825
-0.00693055
-0.00696093
-0.00698548
-0.00700263
-0.00701137
-0.00701056
-0.00699874
-0.00697404
-0.00693437
-0.00687754
-0.00680147
-0.00670435
-0.00658479
-0.00644194
-0.00627557
-0.00608662
0.000494661
0.000521167
0.000530971
0.000507481
0.000448636
0.000355446
0.000229533
7.30757e-05
-0.000111386
-0.000321294
-0.00055424
-0.000808324
-0.00108198
-0.00137404
-0.00168368
-0.00201033
-0.00235348
-0.00271257
-0.00308682
-0.00347503
-0.00387547
-0.00428575
-0.00470267
-0.00512215
-0.00553918
-0.00594773
-0.00634077
-0.00671027
-0.00704727
-0.00734195
-0.00758378
-0.00776173
-0.00786447
-0.00788064
-0.00779924
-0.00760989
-0.00730327
-0.00687148
-0.0063084
-0.00561006
-0.00477494
-0.00380421
-0.00270196
-0.00147532
-0.000134247
0.00130915
0.00283812
0.00443463
0.0060782
0.0077464
0.00941546
0.0110607
0.0126571
0.0141795
0.0156033
0.016905
0.0180621
0.0190536
0.0198607
0.0204663
0.020856
0.0210177
0.020943
0.020626
0.0200645
0.0192607
0.0182212
0.0169573
0.0154855
0.0138275
0.0120102
0.0100654
0.00802934
0.00594178
0.003845
0.00178222
-0.000204387
-0.00207377
-0.00379071
-0.00532497
-0.0066533
-0.0077607
-0.00864094
-0.00929659
-0.00973845
-0.00998437
-0.0100577
-0.00998554
-0.00979647
-0.00951904
-0.00917999
-0.00880311
-0.00840849
-0.00801228
-0.00762681
-0.00726109
-0.00692141
-0.00661208
-0.00633585
-0.00609427
-0.00588773
-0.00571546
-0.00557544
-0.00546454
-0.00537872
-0.00531335
-0.00526364
-0.00522494
-0.00519301
-0.00516414
-0.00513529
-0.005104
-0.00506843
-0.00502729
-0.0049798
-0.00492561
-0.00486477
-0.00479767
-0.00472496
-0.0046475
-0.00456628
-0.00448236
-0.00439688
-0.00431088
-0.00422536
-0.00414119
-0.00405913
-0.00397982
-0.00390372
-0.00383119
-0.00376242
-0.00369752
-0.00363648
-0.00357921
-0.00352555
-0.00347528
-0.00342816
-0.00338391
-0.00334224
-0.00330285
-0.00326546
-0.00322978
-0.00319553
-0.00316246
-0.00313034
-0.00309894
-0.00306807
-0.00303754
-0.0030072
-0.00297689
-0.00294649
-0.00291589
-0.002885
-0.00285373
-0.002822
-0.00278978
-0.00275699
-0.00272362
-0.00268961
-0.00265495
-0.00261962
-0.0025836
-0.00254686
-0.00250937
-0.0024711
-0.00243198
-0.00239192
-0.00235078
-0.00230837
-0.00226438
-0.00221852
-0.00217044
-0.00211971
-0.00206596
-0.00200896
-0.00194858
-0.00188492
-0.00181954
-0.00175636
-0.00167179
0.000498061
0.000526446
0.000536598
0.000513575
0.000458214
0.000372886
0.000259407
0.000119625
-4.4461e-05
-0.000230907
-0.00043806
-0.000664446
-0.000909009
-0.00117103
-0.00145007
-0.00174586
-0.0020582
-0.00238681
-0.00273121
-0.00309056
-0.00346353
-0.00384816
-0.00424178
-0.00464086
-0.00504099
-0.00543676
-0.00582177
-0.00618857
-0.00652873
-0.00683286
-0.00709075
-0.00729153
-0.00742387
-0.00747624
-0.00743724
-0.00729597
-0.0070424
-0.00666776
-0.00616498
-0.00552907
-0.00475746
-0.00385037
-0.00281104
-0.00164557
-0.000362175
0.00102563
0.00250339
0.00405282
0.00565338
0.0072827
0.00891694
0.0105313
0.0121005
0.0135992
0.0150027
0.0162872
0.01743
0.0184101
0.0192085
0.0198081
0.0201944
0.0203551
0.0202813
0.0199675
0.019412
0.0186176
0.0175913
0.0163445
0.0148943
0.0132628
0.0114772
0.00957
0.00757774
0.00554054
0.00350078
0.00150162
-0.00041436
-0.00220856
-0.00384643
-0.00530001
-0.00654841
-0.00757918
-0.00838886
-0.00898274
-0.00937397
-0.00958219
-0.00963176
-0.0095498
-0.00936422
-0.00910197
-0.00878768
-0.00844269
-0.00808457
-0.00772709
-0.00738052
-0.00705217
-0.00674704
-0.00646852
-0.00621882
-0.00599925
-0.00581025
-0.00565132
-0.00552095
-0.0054166
-0.00533494
-0.00527206
-0.00522381
-0.0051861
-0.00515511
-0.00512745
-0.00510023
-0.00507108
-0.00503815
-0.00500008
-0.004956
-0.00490545
-0.00484836
-0.00478499
-0.0047159
-0.00464186
-0.00456379
-0.00448273
-0.00439973
-0.00431583
-0.00423204
-0.00414925
-0.00406823
-0.00398965
-0.003914
-0.00384167
-0.0037729
-0.00370783
-0.00364647
-0.00358877
-0.00353461
-0.00348378
-0.00343606
-0.00339119
-0.0033489
-0.0033089
-0.00327091
-0.00323465
-0.00319986
-0.00316629
-0.00313369
-0.00310186
-0.00307059
-0.00303969
-0.00300902
-0.00297841
-0.00294775
-0.00291691
-0.00288581
-0.00285435
-0.00282247
-0.00279011
-0.00275721
-0.00272373
-0.00268964
-0.00265491
-0.00261951
-0.00258343
-0.00254663
-0.00250909
-0.00247076
-0.00243157
-0.00239144
-0.00235021
-0.0023077
-0.0022637
-0.00221789
-0.00216992
-0.00211947
-0.00206624
-0.00201
-0.00195073
-0.00188866
-0.00182551
-0.00176493
-0.00168416
0.000653521
0.000671835
0.00067109
0.000639303
0.000578807
0.000492682
0.00038296
0.000251347
9.94837e-05
-7.11335e-05
-0.000259319
-0.000464265
-0.000685556
-0.000923131
-0.00117722
-0.00144825
-0.00173669
-0.00204299
-0.00236734
-0.00270963
-0.00306923
-0.00344489
-0.00383463
-0.00423559
-0.00464392
-0.0050547
-0.00546186
-0.00585814
-0.00623506
-0.00658299
-0.00689122
-0.00714815
-0.00734153
-0.00745871
-0.00748705
-0.00741431
-0.00722908
-0.00692131
-0.00648269
-0.00590716
-0.00519137
-0.00433496
-0.00334042
-0.00221284
-0.000961968
0.000399533
0.00185574
0.00338793
0.00497499
0.00659387
0.00822003
0.00982802
0.011392
0.0128863
0.0142859
0.0155666
0.0167058
0.0176825
0.0184779
0.0190752
0.0194599
0.01962
0.0195469
0.0192347
0.0186819
0.0178912
0.0168694
0.0156283
0.0141849
0.0125617
0.0107865
0.00889233
0.00691683
0.00490117
0.00288891
0.000924398
-0.000948978
-0.00269077
-0.00426585
-0.00564697
-0.00681464
-0.0077583
-0.0084772
-0.00898009
-0.00928411
-0.00941292
-0.00939454
-0.00925891
-0.00903564
-0.00875205
-0.00843189
-0.00809453
-0.00775487
-0.00742364
-0.00710807
-0.00681273
-0.00654035
-0.00629255
-0.00607039
-0.00587454
-0.00570525
-0.00556215
-0.00544413
-0.0053492
-0.0052746
-0.00521703
-0.00517289
-0.00513859
-0.0051107
-0.00508611
-0.0050621
-0.0050364
-0.00500717
-0.00497301
-0.00493297
-0.00488649
-0.00483341
-0.0047739
-0.00470845
-0.00463775
-0.00456269
-0.00448429
-0.00440356
-0.00432158
-0.00423934
-0.00415776
-0.00407764
-0.00399966
-0.00392437
-0.00385218
-0.00378337
-0.0037181
-0.00365642
-0.00359831
-0.00354365
-0.00349228
-0.00344399
-0.00339853
-0.00335564
-0.00331505
-0.00327649
-0.00323968
-0.00320436
-0.00317029
-0.00313722
-0.00310496
-0.00307328
-0.00304202
-0.00301101
-0.0029801
-0.00294916
-0.00291808
-0.00288676
-0.00285511
-0.00282306
-0.00279055
-0.00275752
-0.00272393
-0.00268974
-0.00265493
-0.00261946
-0.00258331
-0.00254645
-0.00250885
-0.00247046
-0.00243122
-0.00239103
-0.00234976
-0.00230723
-0.00226323
-0.0022175
-0.00216974
-0.00211966
-0.00206701
-0.00201165
-0.00195363
-0.00189322
-0.00183227
-0.00177467
-0.00169638
0.000974831
0.000967916
0.000941638
0.000890415
0.000816096
0.000720962
0.000606699
0.000474707
0.000326228
0.000162193
-1.68967e-05
-0.000211006
-0.000420563
-0.00064642
-0.000889781
-0.00115209
-0.00143489
-0.00173967
-0.00206771
-0.00241988
-0.0027965
-0.00319715
-0.0036205
-0.00406414
-0.00452441
-0.0049963
-0.0054733
-0.00594737
-0.00640893
-0.00684691
-0.00724891
-0.00760145
-0.00789023
-0.00810057
-0.00821785
-0.00822798
-0.00811799
-0.00787648
-0.00749422
-0.00696461
-0.00628414
-0.0054524
-0.00447176
-0.00334863
-0.00209412
-0.000722418
0.000749296
0.00230098
0.00391016
0.00555244
0.00720212
0.0088327
0.0104175
0.0119304
0.0133457
0.0146395
0.015789
0.0167738
0.0175751
0.0181766
0.0185643
0.0187265
0.018655
0.0183443
0.0177917
0.0169995
0.0159743
0.0147276
0.0132761
0.0116423
0.00985437
0.00794596
0.00595573
0.00392639
0.00190339
-6.66987e-05
-0.00193807
-0.00366771
-0.00521693
-0.00655553
-0.00766326
-0.00852938
-0.00915395
-0.00954815
-0.00973317
-0.00973814
-0.00959733
-0.00934708
-0.00902264
-0.00865563
-0.00827211
-0.0078918
-0.00752811
-0.00718893
-0.00687792
-0.00659584
-0.00634191
-0.00611486
-0.00591361
-0.00573742
-0.0055858
-0.00545813
-0.00535329
-0.00526954
-0.00520442
-0.00515493
-0.00511779
-0.00508967
-0.00506738
-0.00504799
-0.00502891
-0.00500792
-0.00498321
-0.00495337
-0.0049174
-0.0048747
-0.00482509
-0.00476871
-0.00470601
-0.0046377
-0.00456468
-0.00448794
-0.00440859
-0.00432768
-0.00424625
-0.00416525
-0.00408552
-0.00400776
-0.00393254
-0.00386031
-0.00379136
-0.00372586
-0.0036639
-0.00360546
-0.00355043
-0.00349867
-0.00344997
-0.00340409
-0.00336079
-0.00331979
-0.00328082
-0.00324362
-0.00320792
-0.00317349
-0.00314009
-0.0031075
-0.00307553
-0.00304399
-0.00301273
-0.00298158
-0.00295043
-0.00291916
-0.00288766
-0.00285586
-0.00282367
-0.00279103
-0.00275789
-0.00272421
-0.00268994
-0.00265505
-0.00261952
-0.00258331
-0.0025464
-0.00250875
-0.00247032
-0.00243105
-0.00239083
-0.00234955
-0.00230705
-0.00226313
-0.00221756
-0.00217007
-0.00212041
-0.00206837
-0.00201385
-0.00195697
-0.00189797
-0.00183868
-0.00178268
-0.00170759
0.00142805
0.00138394
0.00132026
0.00124096
0.0011463
0.00103647
0.000912059
0.000773659
0.000621574
0.000455735
0.000275628
8.02298e-05
-0.000132001
-0.0003631
-0.000615507
-0.000891942
-0.00119524
-0.00152814
-0.0018931
-0.00229203
-0.00272608
-0.00319538
-0.00369879
-0.00423373
-0.00479593
-0.00537929
-0.00597578
-0.00657545
-0.00716646
-0.00773523
-0.00826675
-0.00874487
-0.00915277
-0.00947345
-0.00969026
-0.00978749
-0.00975095
-0.00956848
-0.00923057
-0.00873076
-0.00806589
-0.00723603
-0.00624515
-0.00510203
-0.0038192
-0.0024123
-0.000900302
0.000694971
0.00234929
0.00403666
0.0057299
0.00740133
0.00902337
0.0105691
0.0120128
0.0133304
0.0144995
0.0154999
0.0163137
0.0169251
0.0173207
0.0174891
0.0174221
0.0171141
0.0165624
0.0157687
0.014739
0.013484
0.01202
0.0103691
0.00855954
0.0066254
0.00460621
0.00254605
0.000492284
-0.00150605
-0.00340021
-0.00514397
-0.00669519
-0.00801874
-0.00908991
-0.00989552
-0.0104341
-0.0107169
-0.0107671
-0.0106186
-0.0103125
-0.00989362
-0.00940626
-0.00889047
-0.00837898
-0.00789558
-0.00745491
-0.00706348
-0.00672163
-0.00642573
-0.00617037
-0.00595004
-0.00576019
-0.00559758
-0.00546012
-0.00534626
-0.00525441
-0.00518264
-0.00512851
-0.00508906
-0.00506107
-0.0050413
-0.00502665
-0.00501425
-0.00500157
-0.0049864
-0.00496693
-0.00494176
-0.00490988
-0.0048707
-0.00482403
-0.00477005
-0.00470925
-0.00464239
-0.00457041
-0.0044944
-0.00441549
-0.00433481
-0.00425345
-0.00417239
-0.00409251
-0.00401455
-0.00393909
-0.00386658
-0.00379734
-0.00373156
-0.00366931
-0.00361057
-0.00355526
-0.00350321
-0.00345423
-0.00340808
-0.00336451
-0.00332324
-0.00328402
-0.00324656
-0.00321063
-0.00317596
-0.00314233
-0.00310953
-0.00307736
-0.00304563
-0.00301418
-0.00298287
-0.00295156
-0.00292014
-0.00288851
-0.00285659
-0.00282429
-0.00279155
-0.00275832
-0.00272456
-0.00269021
-0.00265526
-0.00261967
-0.00258342
-0.00254646
-0.00250878
-0.00247032
-0.00243103
-0.00239082
-0.00234957
-0.00230715
-0.00226336
-0.00221801
-0.00217086
-0.00212168
-0.0020703
-0.00201664
-0.00196081
-0.00190307
-0.00184502
-0.00178962
-0.00171884
0.0019683
0.00187965
0.00177188
0.00165996
0.00154148
0.00141359
0.00127497
0.00112462
0.00096134
0.000783609
0.000589507
0.000376632
0.000142055
-0.000117655
-0.00040634
-0.000728096
-0.00108706
-0.00148713
-0.0019317
-0.00242334
-0.00296346
-0.00355198
-0.00418711
-0.004865
-0.00557965
-0.00632273
-0.00708359
-0.00784937
-0.00860515
-0.00933429
-0.0100188
-0.0106398
-0.011178
-0.0116146
-0.0119313
-0.0121114
-0.0121402
-0.0120053
-0.0116975
-0.0112111
-0.0105436
-0.00969654
-0.00867619
-0.00749317
-0.0061614
-0.00469852
-0.00312553
-0.00146633
0.000252832
0.00200409
0.00375858
0.00548723
0.00716136
0.00875335
0.0102371
0.0115887
0.012786
0.0138095
0.0146422
0.015269
0.0156773
0.0158564
0.0157981
0.0154968
0.0149497
0.0141576
0.0131258
0.0118643
0.0103886
0.0087202
0.00688711
0.00492362
0.00286993
0.000771294
-0.00132318
-0.00336218
-0.00529409
-0.00706922
-0.00864206
-0.00997266
-0.0110309
-0.0117983
-0.0122696
-0.0124534
-0.0123722
-0.0120618
-0.0115684
-0.0109449
-0.0102463
-0.00952389
-0.00882149
-0.00817155
-0.00759414
-0.00709753
-0.00668051
-0.00633553
-0.00605195
-0.00581886
-0.00562682
-0.00546874
-0.00533971
-0.00523635
-0.00515592
-0.00509577
-0.00505306
-0.00502463
-0.0050071
-0.00499711
-0.0049915
-0.00498735
-0.00498209
-0.00497348
-0.00495969
-0.00493931
-0.00491134
-0.00487523
-0.00483085
-0.00477845
-0.00471862
-0.00465222
-0.0045803
-0.00450403
-0.00442465
-0.00434337
-0.00426133
-0.00417957
-0.00409901
-0.00402041
-0.00394437
-0.00387136
-0.00380168
-0.00373551
-0.00367294
-0.00361394
-0.00355839
-0.00350615
-0.00345699
-0.00341069
-0.00336697
-0.00332557
-0.00328621
-0.00324863
-0.00321257
-0.00317778
-0.00314403
-0.0031111
-0.00307881
-0.00304696
-0.0030154
-0.00298397
-0.00295256
-0.00292104
-0.00288932
-0.0028573
-0.00282492
-0.0027921
-0.0027588
-0.00272497
-0.00269057
-0.00265556
-0.00261992
-0.00258362
-0.00254663
-0.00250892
-0.00247045
-0.00243116
-0.00239097
-0.00234979
-0.00230748
-0.00226388
-0.00221882
-0.00217207
-0.00212345
-0.00207277
-0.00201999
-0.00196519
-0.00190862
-0.00185157
-0.00179624
-0.00173045
0.00253737
0.00240156
0.00224705
0.00210124
0.00195809
0.00181042
0.00165412
0.00148598
0.00130272
0.00110094
0.000876942
0.000626675
0.000345642
2.89234e-05
-0.00032871
-0.000732589
-0.00118786
-0.00169914
-0.00227015
-0.00290329
-0.00359929
-0.00435683
-0.00517229
-0.00603948
-0.00694959
-0.00789119
-0.00885032
-0.00981074
-0.0107543
-0.0116614
-0.0125112
-0.0132827
-0.0139548
-0.0145072
-0.0149208
-0.0151783
-0.0152649
-0.0151685
-0.0148805
-0.0143955
-0.0137124
-0.0128349
-0.0117707
-0.0105318
-0.00913401
-0.0075971
-0.00594436
-0.00420203
-0.00239863
-0.000564236
0.0012703
0.00307415
0.0048173
0.00647118
0.00800926
0.00940742
0.0106442
0.0117007
0.0125607
0.0132105
0.0136382
0.0138342
0.0137902
0.0135011
0.0129639
0.0121783
0.0111489
0.00988484
0.00840063
0.0067172
0.00486219
0.00286998
0.000781277
-0.00135761
-0.00349607
-0.00558071
-0.00755731
-0.009373
-0.0109786
-0.0123305
-0.0133937
-0.0141431
-0.0145684
-0.0146734
-0.0144774
-0.0140148
-0.0133336
-0.0124924
-0.0115553
-0.0105862
-0.00964225
-0.00876874
-0.00799595
-0.00733832
-0.00679646
-0.00636079
-0.00601602
-0.00574526
-0.00553306
-0.00536704
-0.00523812
-0.00513993
-0.00506774
-0.00501752
-0.00498552
-0.00496807
-0.00496136
-0.00496175
-0.00496584
-0.00497054
-0.00497313
-0.0049713
-0.00496317
-0.00494729
-0.00492272
-0.00488896
-0.00484598
-0.00479417
-0.00473425
-0.00466722
-0.00459429
-0.00451677
-0.00443599
-0.00435326
-0.00426981
-0.00418674
-0.00410499
-0.00402535
-0.00394844
-0.0038747
-0.00380443
-0.00373782
-0.00367491
-0.00361565
-0.00355994
-0.00350758
-0.00345835
-0.003412
-0.00336826
-0.00332684
-0.00328747
-0.00324988
-0.0032138
-0.00317899
-0.00314521
-0.00311225
-0.00307991
-0.00304802
-0.0030164
-0.00298492
-0.00295345
-0.00292187
-0.00289008
-0.002858
-0.00282556
-0.00279269
-0.00275933
-0.00272544
-0.00269099
-0.00265594
-0.00262026
-0.00258392
-0.0025469
-0.00250917
-0.0024707
-0.00243142
-0.00239128
-0.00235019
-0.00230803
-0.00226468
-0.00221995
-0.00217367
-0.00212566
-0.00207574
-0.00202386
-0.00197007
-0.00191458
-0.00185836
-0.00180279
-0.00174218
0.00306467
0.00288256
0.00268332
0.00250537
0.00233817
0.00216953
0.00199186
0.00179917
0.0015857
0.00134577
0.00107371
0.000763672
0.000409563
5.07e-06
-0.000456177
-0.000980336
-0.00157299
-0.00223871
-0.00298064
-0.00380002
-0.00469583
-0.00566444
-0.00669943
-0.00779147
-0.00892836
-0.0100952
-0.0112747
-0.0124473
-0.0135921
-0.0146869
-0.0157089
-0.0166352
-0.0174436
-0.0181127
-0.0186229
-0.0189565
-0.0190987
-0.0190374
-0.0187643
-0.0182748
-0.0175693
-0.0166523
-0.0155329
-0.0142247
-0.0127455
-0.0111174
-0.0093663
-0.00752089
-0.0056124
-0.00367351
-0.00173753
0.000162567
0.00199498
0.00372986
0.00533991
0.00680082
0.00809142
0.00919368
0.0100924
0.0107751
0.0112312
0.011452
0.0114301
0.0111602
0.010639
0.0098661
0.00884485
0.00758348
0.00609565
0.00440156
0.00252847
0.000510803
-0.00161021
-0.00378731
-0.00596847
-0.00809842
-0.0101206
-0.0119793
-0.013622
-0.0150015
-0.0160785
-0.0168236
-0.0172196
-0.0172651
-0.0169746
-0.0163787
-0.015524
-0.0144712
-0.0132908
-0.0120569
-0.0108404
-0.00970173
-0.00868508
-0.00781571
-0.00710034
-0.00653065
-0.00608852
-0.00575158
-0.00549783
-0.00530845
-0.00516892
-0.00506865
-0.0049999
-0.00495652
-0.00493336
-0.00492574
-0.00492923
-0.00493968
-0.00495327
-0.00496665
-0.00497685
-0.00498143
-0.00497839
-0.0049663
-0.00494424
-0.00491182
-0.00486915
-0.00481678
-0.00475561
-0.00468684
-0.00461183
-0.00453206
-0.004449
-0.00436407
-0.00427856
-0.00419363
-0.00411027
-0.00402926
-0.00395122
-0.00387659
-0.00380565
-0.00373854
-0.0036753
-0.00361584
-0.00356003
-0.00350764
-0.00345845
-0.00341216
-0.00336851
-0.0033272
-0.00328793
-0.00325043
-0.00321444
-0.0031797
-0.00314597
-0.00311305
-0.00308074
-0.00304886
-0.00301725
-0.00298576
-0.00295426
-0.00292266
-0.00289084
-0.00285872
-0.00282624
-0.00279332
-0.00275992
-0.00272599
-0.0026915
-0.00265641
-0.00262069
-0.00258432
-0.00254728
-0.00250954
-0.00247107
-0.00243182
-0.00239174
-0.00235077
-0.0023088
-0.00226572
-0.00222138
-0.00217561
-0.00212824
-0.00207911
-0.00202812
-0.0019753
-0.00192082
-0.00186526
-0.00180928
-0.00175364
0.00347343
0.00325004
0.00301098
0.00280427
0.00261427
0.00242331
0.00221992
0.00199497
0.00173993
0.00144673
0.00110763
0.000715049
0.00026144
-0.0002606
-0.000858131
-0.00153753
-0.00230404
-0.00316133
-0.00411102
-0.00515225
-0.00628137
-0.00749171
-0.00877355
-0.0101141
-0.0114978
-0.0129064
-0.0143197
-0.0157155
-0.0170704
-0.0183605
-0.0195612
-0.0206484
-0.0215987
-0.0223898
-0.0230015
-0.0234155
-0.0236164
-0.0235923
-0.0233345
-0.022839
-0.0221072
-0.0211441
-0.0199602
-0.0185705
-0.0169952
-0.0152588
-0.0133897
-0.0114198
-0.00938321
-0.00731586
-0.00525394
-0.00323314
-0.00128756
0.000551192
0.00225467
0.00379806
0.00516038
0.00632433
0.00727594
0.00800399
0.00849946
0.00875491
0.00876403
0.00852154
0.00802435
0.0072715
0.00626529
0.00501311
0.00352775
0.00182871
-5.70604e-05
-0.00209508
-0.00424359
-0.0064544
-0.0086741
-0.0108457
-0.0129104
-0.01481
-0.016489
-0.0178968
-0.0189904
-0.0197373
-0.020114
-0.0201141
-0.0197467
-0.0190376
-0.01803
-0.0167834
-0.015371
-0.0138741
-0.012375
-0.0109491
-0.0096564
-0.0085364
-0.00760619
-0.00686264
-0.00628773
-0.00585519
-0.00553678
-0.00530674
-0.00514408
-0.00503287
-0.00496132
-0.00492047
-0.00490309
-0.0049031
-0.00491516
-0.00493439
-0.00495644
-0.00497753
-0.0049944
-0.00500438
-0.00500539
-0.00499594
-0.00497519
-0.00494286
-0.00489925
-0.00484508
-0.0047815
-0.00470989
-0.00463183
-0.00454895
-0.00446286
-0.00437508
-0.004287
-0.00419981
-0.00411452
-0.00403192
-0.00395261
-0.00387702
-0.00380538
-0.0037378
-0.00367428
-0.00361469
-0.00355887
-0.00350656
-0.00345751
-0.0034114
-0.00336795
-0.00332684
-0.00328777
-0.00325047
-0.00321464
-0.00318005
-0.00314646
-0.00311364
-0.00308141
-0.00304959
-0.00301802
-0.00298656
-0.00295508
-0.00292347
-0.00289164
-0.00285951
-0.00282699
-0.00279405
-0.00276061
-0.00272664
-0.00269211
-0.00265698
-0.00262123
-0.00258484
-0.00254777
-0.00251002
-0.00247156
-0.00243235
-0.00239235
-0.00235151
-0.00230975
-0.00226697
-0.00222304
-0.0021778
-0.00213109
-0.00208274
-0.00203263
-0.0019807
-0.00192711
-0.0018721
-0.0018156
-0.00176439
0.00368755
0.00343104
0.00315979
0.00292892
0.00271757
0.00250262
0.00226865
0.0020033
0.00169528
0.00133415
0.000910247
0.000414418
-0.000161989
-0.000827029
-0.00158788
-0.00245046
-0.00341892
-0.00449525
-0.0056788
-0.00696597
-0.00835004
-0.00982107
-0.011366
-0.0129688
-0.0146108
-0.0162712
-0.0179271
-0.0195543
-0.0211278
-0.0226216
-0.02401
-0.0252675
-0.0263694
-0.0272923
-0.0280148
-0.0285176
-0.0287847
-0.0288031
-0.028564
-0.0280636
-0.0273035
-0.0262894
-0.0250326
-0.0235503
-0.0218644
-0.0200021
-0.017995
-0.0158779
-0.0136888
-0.011467
-0.00925224
-0.00708348
-0.00499774
-0.00302897
-0.00120727
0.000441664
0.00189674
0.00314127
0.00416249
0.00495075
0.00549869
0.00580044
0.00585094
0.00564562
0.00518129
0.00445676
0.00347353
0.00223803
0.000762282
-0.000934807
-0.0028266
-0.00487846
-0.00704809
-0.00928635
-0.0115385
-0.0137459
-0.0158477
-0.0177834
-0.0194948
-0.0209285
-0.0220378
-0.022787
-0.0231493
-0.0231124
-0.0226809
-0.0218759
-0.020736
-0.0193179
-0.0176943
-0.0159501
-0.014176
-0.0124597
-0.010877
-0.00948317
-0.00830876
-0.00735959
-0.00662115
-0.00606572
-0.00566004
-0.00537159
-0.0051724
-0.00504036
-0.00495876
-0.00491506
-0.0048994
-0.00490391
-0.00492201
-0.00494791
-0.00497657
-0.00500369
-0.00502564
-0.00503949
-0.00504302
-0.00503474
-0.00501386
-0.00498024
-0.00493438
-0.00487723
-0.00481015
-0.00473475
-0.00465281
-0.00456613
-0.00447646
-0.00438541
-0.00429443
-0.00420475
-0.00411739
-0.00403313
-0.00395254
-0.00387601
-0.00380373
-0.00373577
-0.00367207
-0.00361246
-0.00355674
-0.00350464
-0.00345583
-0.00341002
-0.00336687
-0.00332606
-0.00328728
-0.00325023
-0.00321465
-0.00318027
-0.00314685
-0.00311419
-0.00308208
-0.00305035
-0.00301885
-0.00298743
-0.00295598
-0.00292439
-0.00289256
-0.00286041
-0.00282787
-0.0027949
-0.00276143
-0.00272742
-0.00269285
-0.00265768
-0.0026219
-0.00258547
-0.00254839
-0.00251063
-0.00247218
-0.00243302
-0.00239311
-0.00235241
-0.00231086
-0.00226839
-0.00222487
-0.00218016
-0.00213409
-0.00208648
-0.00203717
-0.00198606
-0.00193323
-0.00187866
-0.00182159
-0.00177405
0.00364152
0.00336255
0.00306871
0.00281904
0.00258784
0.00234714
0.00207786
0.00176458
0.00139343
0.000951882
0.000428552
-0.000186906
-0.000903859
-0.00173052
-0.00267364
-0.00373806
-0.0049263
-0.00623812
-0.00767025
-0.00921613
-0.010866
-0.0126067
-0.0144222
-0.0162939
-0.0182004
-0.0201189
-0.0220243
-0.0238909
-0.0256918
-0.0273995
-0.0289868
-0.0304264
-0.0316921
-0.0327589
-0.0336036
-0.0342058
-0.0345479
-0.0346159
-0.0344001
-0.0338971
-0.0331078
-0.0320386
-0.030702
-0.0291166
-0.0273067
-0.025302
-0.0231371
-0.0208508
-0.0184845
-0.0160817
-0.0136862
-0.0113409
-0.0090862
-0.00695918
-0.00499214
-0.00321218
-0.00164088
-0.000294543
0.000815199
0.00168037
0.00229553
0.00265661
0.00276011
0.00260257
0.00218092
0.00149382
0.000542337
-0.000668151
-0.00212623
-0.00381352
-0.00570358
-0.0077616
-0.0099447
-0.0122028
-0.01448
-0.0167159
-0.018848
-0.0208135
-0.0225517
-0.0240067
-0.0251288
-0.0258787
-0.026228
-0.0261589
-0.0256722
-0.0247847
-0.0235309
-0.0219635
-0.0201531
-0.0181854
-0.0161559
-0.0141618
-0.012292
-0.0106176
-0.00918393
-0.00800864
-0.00708387
-0.00638325
-0.00587043
-0.00550703
-0.00525818
-0.00509517
-0.00499578
-0.00494319
-0.00492451
-0.00492971
-0.00495061
-0.00498038
-0.00501318
-0.00504407
-0.00506902
-0.0050848
-0.00508906
-0.00508026
-0.0050577
-0.00502141
-0.00497206
-0.00491085
-0.00483936
-0.00475944
-0.00467305
-0.00458214
-0.00448858
-0.00439407
-0.0043001
-0.00420792
-0.00411853
-0.0040327
-0.00395096
-0.00387363
-0.00380086
-0.00373267
-0.00366894
-0.00360947
-0.003554
-0.00350221
-0.00345378
-0.00340835
-0.00336559
-0.00332516
-0.00328673
-0.00325001
-0.00321471
-0.00318058
-0.00314737
-0.00311488
-0.00308292
-0.0030513
-0.00301987
-0.00298851
-0.00295709
-0.0029255
-0.00289367
-0.0028615
-0.00282894
-0.00279592
-0.00276241
-0.00272836
-0.00269374
-0.00265853
-0.0026227
-0.00258624
-0.00254913
-0.00251137
-0.00247293
-0.00243381
-0.00239399
-0.00235343
-0.0023121
-0.00226991
-0.00222678
-0.00218257
-0.00213709
-0.00209015
-0.00204156
-0.00199114
-0.00193892
-0.00188472
-0.00182708