/*--------------------------------*- C++ -*----------------------------------*\
  =========                 |
  \\      /  F ield         | OpenFOAM: The Open Source CFD Toolbox
   \\    /   O peration     | Website:  https://openfoam.org
    \\  /    A nd           | Version:  8
     \\/     M anipulation  |
\*---------------------------------------------------------------------------*/
FoamFile
{
    version     2.0;
    format      ascii;
    class       surfaceScalarField;
    location    "0.6";
    object      phi;
}
// * * * * * * * * * * * * * * * * * * * * * * * * * * * * * * * * * * * * * //

dimensions      [0 3 -1 0 0 0 0];

internalField   nonuniform List<scalar> 
24170
(
-2.94746e-12
2.94746e-12
4.00709e-12
-6.95456e-12
2.03785e-11
-1.63714e-11
4.47907e-11
-2.44123e-11
7.61279e-11
-3.13372e-11
1.13697e-10
-3.75686e-11
1.57082e-10
-4.33853e-11
2.06118e-10
-4.90359e-11
2.60928e-10
-5.48102e-11
3.22044e-10
-6.11163e-11
3.90573e-10
-6.85292e-11
4.68372e-10
-7.77986e-11
5.58116e-10
-8.97443e-11
6.62694e-10
-1.04578e-10
7.80536e-10
-1.17842e-10
8.76958e-10
-9.64218e-11
8.22364e-10
5.45946e-11
2.03436e-09
-1.212e-09
-3.78292e-12
6.73038e-12
2.01784e-11
-3.09159e-11
7.28178e-11
-6.90108e-11
1.50096e-10
-1.0169e-10
2.48802e-10
-1.30043e-10
3.6668e-10
-1.55447e-10
5.02252e-10
-1.78957e-10
6.54675e-10
-2.01459e-10
8.23809e-10
-2.23944e-10
1.01039e-09
-2.47694e-10
1.21615e-09
-2.74296e-10
1.44362e-09
-3.05262e-10
1.69453e-09
-3.4066e-10
1.96436e-09
-3.74408e-10
2.2229e-09
-3.76375e-10
2.34901e-09
-2.22539e-10
1.85587e-09
5.47739e-10
4.53617e-09
-6.4594e-10
1.94617e-13
6.53576e-12
4.63335e-11
-7.70549e-11
1.41524e-10
-1.64201e-10
2.79316e-10
-2.39483e-10
4.54355e-10
-3.05082e-10
6.62572e-10
-3.63664e-10
9.01041e-10
-4.17426e-10
1.16772e-09
-4.68141e-10
1.46144e-09
-5.17665e-10
1.78191e-09
-5.6816e-10
2.12937e-09
-6.21759e-10
2.50313e-09
-6.7902e-10
2.89686e-09
-7.34387e-10
3.28572e-09
-7.6327e-10
3.59158e-09
-6.82232e-10
3.59281e-09
-2.23767e-10
2.681e-09
1.45955e-09
7.10625e-09
1.1091e-10
8.65417e-12
-2.11842e-12
8.34314e-11
-1.51832e-10
2.28096e-10
-3.08865e-10
4.34374e-10
-4.45761e-10
6.94705e-10
-5.65413e-10
1.00294e-09
-6.71897e-10
1.35423e-09
-7.68716e-10
1.74464e-09
-8.5855e-10
2.17091e-09
-9.43935e-10
2.63006e-09
-1.02731e-09
3.11818e-09
-1.10988e-09
3.62703e-09
-1.18786e-09
4.13554e-09
-1.24291e-09
4.59029e-09
-1.21802e-09
4.86264e-09
-9.54587e-10
4.66901e-09
-3.01369e-11
3.47449e-09
2.65407e-09
9.59423e-09
9.86518e-10
2.20227e-11
-2.41412e-11
1.32217e-10
-2.62026e-10
3.33734e-10
-5.10382e-10
6.16531e-10
-7.28559e-10
9.70754e-10
-9.19636e-10
1.38786e-09
-1.08901e-09
1.86053e-09
-1.24138e-09
2.38206e-09
-1.38008e-09
2.9458e-09
-1.50768e-09
3.54417e-09
-1.62569e-09
4.16623e-09
-1.73194e-09
4.79225e-09
-1.81388e-09
5.38203e-09
-1.83269e-09
5.85212e-09
-1.68811e-09
6.03662e-09
-1.13908e-09
5.6427e-09
3.63783e-10
4.28634e-09
4.01044e-09
1.1886e-08
1.99454e-09
4.01658e-11
-6.43069e-11
1.92988e-10
-4.14848e-10
4.58892e-10
-7.76286e-10
8.2593e-10
-1.0956e-09
1.28181e-09
-1.37552e-09
1.81526e-09
-1.62246e-09
2.41582e-09
-1.84194e-09
3.07305e-09
-2.03731e-09
3.77551e-09
-2.21014e-09
4.50898e-09
-2.35916e-09
5.25292e-09
-2.47588e-09
5.97338e-09
-2.53433e-09
6.60989e-09
-2.4692e-09
7.05422e-09
-2.13244e-09
7.12438e-09
-1.20925e-09
6.56155e-09
9.26611e-10
5.14684e-09
5.42515e-09
1.3919e-08
3.11389e-09
6.28216e-11
-1.27129e-10
2.6543e-10
-6.17457e-10
6.02981e-10
-1.11384e-09
1.06118e-09
-1.55379e-09
1.62507e-09
-1.9394e-09
2.28025e-09
-2.27764e-09
3.01247e-09
-2.57416e-09
3.80653e-09
-2.83137e-09
4.64478e-09
-3.04839e-09
5.50461e-09
-3.21899e-09
6.35408e-09
-3.32535e-09
7.14408e-09
-3.32433e-09
7.79622e-09
-3.12134e-09
8.18749e-09
-2.52371e-09
8.14205e-09
-1.16381e-09
7.46274e-09
1.60592e-09
6.07864e-09
6.80925e-09
1.56555e-08
4.34214e-09
8.94625e-11
-2.16591e-10
3.48431e-10
-8.76425e-10
7.64014e-10
-1.52942e-09
1.31883e-09
-2.10861e-09
1.99493e-09
-2.61551e-09
2.77442e-09
-3.05713e-09
3.63859e-09
-3.43833e-09
4.56657e-09
-3.75935e-09
5.53333e-09
-4.01515e-09
6.50669e-09
-4.19235e-09
7.4426e-09
-4.26126e-09
8.27804e-09
-4.15977e-09
8.92198e-09
-3.76529e-09
9.24883e-09
-2.85056e-09
9.1075e-09
-1.02248e-09
8.37469e-09
2.33873e-09
7.09684e-09
8.0871e-09
1.7072e-08
5.68027e-09
1.19241e-10
-3.35832e-10
4.39879e-10
-1.19706e-09
9.38211e-10
-2.02775e-09
1.5928e-09
-2.7632e-09
2.38233e-09
-3.40503e-09
3.28501e-09
-3.95981e-09
4.27722e-09
-4.43055e-09
5.33175e-09
-4.81388e-09
6.41549e-09
-5.09889e-09
7.48633e-09
-5.26319e-09
8.48888e-09
-5.26381e-09
9.34933e-09
-5.02021e-09
9.97122e-09
-4.38718e-09
1.02382e-08
-3.11756e-09
1.00365e-08
-8.20809e-10
9.31637e-09
3.0589e-09
8.20817e-09
9.19531e-09
1.81519e-08
7.1283e-09
1.50929e-10
-4.86761e-10
5.36461e-10
-1.5826e-09
1.11958e-09
-2.61087e-09
1.87375e-09
-3.51737e-09
2.77386e-09
-4.30514e-09
3.79405e-09
-4.97999e-09
4.90551e-09
-5.54201e-09
6.07447e-09
-5.98284e-09
7.25974e-09
-6.28416e-09
8.40999e-09
-6.41343e-09
9.46064e-09
-6.31446e-09
1.03317e-08
-5.89125e-09
1.09289e-08
-4.98443e-09
1.11549e-08
-3.34355e-09
1.0939e-08
-6.04897e-10
1.02961e-08
3.70182e-09
9.4105e-09
1.00809e-08
1.88805e-08
8.68187e-09
1.83035e-10
-6.69796e-10
6.33481e-10
-2.03304e-09
1.29951e-09
-3.2769e-09
2.14844e-09
-4.3663e-09
3.15108e-09
-5.30779e-09
4.27745e-09
-6.10636e-09
5.49377e-09
-6.75833e-09
6.76008e-09
-7.24915e-09
8.02799e-09
-7.55208e-09
9.23871e-09
-7.62414e-09
1.03218e-08
-7.39757e-09
1.11964e-08
-6.76584e-09
1.17775e-08
-5.56555e-09
1.19927e-08
-3.55877e-09
1.18145e-08
-4.2663e-10
1.13092e-08
4.20706e-09
1.06909e-08
1.06993e-08
1.92431e-08
1.03283e-08
1.7881e-10
-8.48606e-10
6.05634e-10
-2.45987e-09
1.22674e-09
-3.898e-09
2.00879e-09
-5.14836e-09
2.92378e-09
-6.22277e-09
3.94353e-09
-7.12611e-09
5.03619e-09
-7.85099e-09
6.16412e-09
-8.37708e-09
7.28226e-09
-8.67022e-09
8.33731e-09
-8.67919e-09
9.26839e-09
-8.32865e-09
1.00105e-08
-7.50795e-09
1.0503e-08
-6.05807e-09
1.07059e-08
-3.7617e-09
1.06257e-08
-3.46349e-10
1.03471e-08
4.48562e-09
1.00593e-08
1.0987e-08
1.9255e-08
1.00474e-08
2.27607e-10
-1.07621e-09
7.63645e-10
-2.9959e-09
1.53125e-09
-4.66561e-09
2.48682e-09
-6.10393e-09
3.59499e-09
-7.33094e-09
4.82081e-09
-8.35194e-09
6.12508e-09
-9.15525e-09
7.46165e-09
-9.71365e-09
8.77616e-09
-9.98473e-09
1.00061e-08
-9.90917e-09
1.10836e-08
-9.40615e-09
1.19417e-08
-8.36597e-09
1.25261e-08
-6.64252e-09
1.28149e-08
-4.0505e-09
1.28435e-08
-3.74895e-10
1.27309e-08
4.59823e-09
1.26931e-08
1.10248e-08
1.89268e-08
1.30213e-08
2.80084e-10
-1.3563e-09
9.33074e-10
-3.64889e-09
1.85398e-09
-5.58652e-09
2.98681e-09
-7.23675e-09
4.28843e-09
-8.63257e-09
5.7173e-09
-9.7808e-09
7.22751e-09
-1.06655e-08
8.76574e-09
-1.12519e-08
1.02704e-08
-1.14894e-08
1.16731e-08
-1.13119e-08
1.29038e-08
-1.06368e-08
1.39e-08
-9.36217e-09
1.46216e-08
-7.36411e-09
1.50707e-08
-4.49967e-09
1.53143e-08
-6.18492e-10
1.55017e-08
4.41083e-09
1.58658e-08
1.06607e-08
1.80985e-08
1.66942e-08
3.25995e-10
-1.68229e-09
1.07912e-09
-4.40202e-09
2.12689e-09
-6.63429e-09
3.40068e-09
-8.51054e-09
4.85114e-09
-1.0083e-08
6.43264e-09
-1.13623e-08
8.09618e-09
-1.2329e-08
9.78594e-09
-1.29416e-08
1.1439e-08
-1.31424e-08
1.29885e-08
-1.28614e-08
1.43704e-08
-1.20187e-08
1.55352e-08
-1.0527e-08
1.64637e-08
-8.29259e-09
1.71851e-08
-5.22108e-09
1.77943e-08
-1.2277e-09
1.84607e-08
3.74447e-09
1.94202e-08
9.70121e-09
1.65735e-08
2.09452e-08
3.42842e-10
-2.02513e-09
1.1278e-09
-5.18698e-09
2.20673e-09
-7.71322e-09
3.50418e-09
-9.80799e-09
4.97045e-09
-1.15493e-08
6.56289e-09
-1.29547e-08
8.23791e-09
-1.4004e-08
9.94734e-09
-1.46511e-08
1.16385e-08
-1.48336e-08
1.32578e-08
-1.44807e-08
1.47592e-08
-1.35201e-08
1.61151e-08
-1.18829e-08
1.73314e-08
-9.5089e-09
1.84618e-08
-6.35146e-09
1.96187e-08
-2.38463e-09
2.09755e-08
2.38774e-09
2.27538e-08
7.92291e-09
1.41296e-08
2.51976e-08
2.89303e-10
-2.31444e-09
9.43991e-10
-5.84166e-09
1.83299e-09
-8.60222e-09
2.89195e-09
-1.08669e-08
4.08434e-09
-1.27417e-08
5.38421e-09
-1.42546e-08
6.76853e-09
-1.53883e-08
8.21356e-09
-1.60961e-08
9.69446e-09
-1.63145e-08
1.11884e-08
-1.59747e-08
1.26813e-08
-1.5013e-08
1.41768e-08
-1.33785e-08
1.57075e-08
-1.10395e-08
1.7344e-08
-7.98793e-09
1.92008e-08
-4.24151e-09
2.14373e-08
1.51298e-10
2.42387e-08
5.12146e-09
1.05612e-08
2.78071e-08
1.00453e-10
-2.41489e-09
3.18788e-10
-6.06e-09
6.0573e-10
-8.88916e-09
9.42801e-10
-1.1204e-08
1.32946e-09
-1.31283e-08
1.7765e-09
-1.47017e-08
2.30199e-09
-1.59138e-08
2.92828e-09
-1.67224e-08
3.68052e-09
-1.70667e-08
4.5874e-09
-1.68816e-08
5.68403e-09
-1.61096e-08
7.01653e-09
-1.4711e-08
8.64735e-09
-1.26704e-08
1.06596e-08
-1.00002e-08
1.31586e-08
-6.74058e-09
1.62676e-08
-2.9577e-09
2.0128e-08
1.2611e-09
5.8115e-09
2.48777e-08
-2.98e-10
-2.11689e-09
-9.73017e-10
-5.38498e-09
-1.90002e-09
-7.96215e-09
-3.0077e-09
-1.00963e-08
-4.23597e-09
-1.19001e-08
-5.519e-09
-1.34186e-08
-6.78048e-09
-1.46523e-08
-7.93375e-09
-1.55691e-08
-8.88393e-09
-1.61165e-08
-9.5305e-09
-1.6235e-08
-9.76955e-09
-1.58705e-08
-9.49563e-09
-1.49849e-08
-8.60307e-09
-1.35629e-08
-6.98734e-09
-1.16159e-08
-4.54693e-09
-9.181e-09
-1.18605e-09
-6.31857e-09
3.18196e-09
-3.10691e-09
3.64755e-10
8.62871e-09
-4.54327e-10
-1.66256e-09
-1.48463e-09
-4.35468e-09
-2.90356e-09
-6.54322e-09
-4.61558e-09
-8.38432e-09
-6.5529e-09
-9.96276e-09
-8.64985e-09
-1.13217e-08
-1.08332e-08
-1.2469e-08
-1.30188e-08
-1.33834e-08
-1.51125e-08
-1.40229e-08
-1.70116e-08
-1.43359e-08
-1.86093e-08
-1.42728e-08
-1.9799e-08
-1.37952e-08
-2.04784e-08
-1.28835e-08
-2.05543e-08
-1.154e-08
-1.99457e-08
-9.78961e-09
-1.85867e-08
-7.67749e-09
-1.64285e-08
-5.26512e-09
-2.62485e-09
-1.34389e-08
-4.84665e-10
-1.1779e-09
-1.59453e-09
-3.24482e-09
-3.14014e-09
-4.9976e-09
-5.02847e-09
-6.496e-09
-7.19656e-09
-7.79467e-09
-9.58643e-09
-8.93181e-09
-1.21347e-08
-9.9208e-09
-1.47679e-08
-1.07502e-08
-1.74013e-08
-1.13895e-08
-1.99401e-08
-1.17972e-08
-2.22824e-08
-1.19305e-08
-2.43239e-08
-1.17537e-08
-2.59631e-08
-1.12444e-08
-2.7106e-08
-1.03971e-08
-2.76712e-08
-9.2244e-09
-2.75932e-08
-7.75551e-09
-2.68247e-08
-6.03362e-09
-4.11228e-09
-2.53372e-08
-4.2381e-10
-7.54087e-10
-1.41602e-09
-2.25261e-09
-2.82424e-09
-3.58938e-09
-4.5732e-09
-4.74704e-09
-6.61163e-09
-5.75624e-09
-8.89378e-09
-6.64965e-09
-1.1371e-08
-7.44354e-09
-1.3987e-08
-8.13431e-09
-1.66749e-08
-8.70151e-09
-1.93579e-08
-9.11419e-09
-2.19502e-08
-9.3382e-09
-2.43609e-08
-9.34293e-09
-2.64988e-08
-9.10654e-09
-2.82766e-08
-8.61924e-09
-2.96164e-08
-7.88463e-09
-3.04528e-08
-6.91912e-09
-3.07361e-08
-5.75025e-09
-4.41487e-09
-3.04336e-08
-3.24371e-10
-4.29715e-10
-1.11398e-09
-1.463e-09
-2.2666e-09
-2.43676e-09
-3.72722e-09
-3.28642e-09
-5.4559e-09
-4.02756e-09
-7.41809e-09
-4.68746e-09
-9.57878e-09
-5.28286e-09
-1.1898e-08
-5.81509e-09
-1.43278e-08
-6.27171e-09
-1.68109e-08
-6.63106e-09
-1.92814e-08
-6.86772e-09
-2.16668e-08
-6.95757e-09
-2.38915e-08
-6.88184e-09
-2.5881e-08
-6.62975e-09
-2.75658e-08
-6.19984e-09
-2.8885e-08
-5.59985e-09
-2.97895e-08
-4.84575e-09
-3.96104e-09
-3.02433e-08
-2.21241e-10
-2.08474e-10
-7.97206e-10
-8.87034e-10
-1.67179e-09
-1.56218e-09
-2.80644e-09
-2.15176e-09
-4.17006e-09
-2.66395e-09
-5.7367e-09
-3.12081e-09
-7.48204e-09
-3.53752e-09
-9.37939e-09
-3.91773e-09
-1.13965e-08
-4.25456e-09
-1.34938e-08
-4.5338e-09
-1.56237e-08
-4.73778e-09
-1.77324e-08
-4.84894e-09
-1.97614e-08
-4.85276e-09
-2.16515e-08
-4.73968e-09
-2.33451e-08
-4.50622e-09
-2.47899e-08
-4.15508e-09
-2.5941e-08
-3.6946e-09
-3.13851e-09
-2.67636e-08
-1.33045e-10
-7.54295e-11
-5.22786e-10
-4.97293e-10
-1.14718e-09
-9.37787e-10
-1.97888e-09
-1.32006e-09
-2.99327e-09
-1.64956e-09
-4.1709e-09
-1.94319e-09
-5.49527e-09
-2.21315e-09
-6.94948e-09
-2.46352e-09
-8.51318e-09
-2.69086e-09
-1.01605e-08
-2.88649e-09
-1.18593e-08
-3.03898e-09
-1.35716e-08
-3.1366e-09
-1.52552e-08
-3.16916e-09
-1.68656e-08
-3.12936e-09
-1.83582e-08
-3.01359e-09
-1.96912e-08
-2.82211e-09
-2.0827e-08
-2.55875e-09
-2.2307e-09
-2.17348e-08
-6.6979e-11
-8.45053e-12
-3.11902e-10
-2.5237e-10
-7.33117e-10
-5.16572e-10
-1.31025e-09
-7.4293e-10
-2.02384e-09
-9.3597e-10
-2.85949e-09
-1.10754e-09
-3.80637e-09
-1.26627e-09
-4.85439e-09
-1.4155e-09
-5.99151e-09
-1.55374e-09
-7.2019e-09
-1.6761e-09
-8.465e-09
-1.77588e-09
-9.75565e-09
-1.84595e-09
-1.10449e-08
-1.87992e-09
-1.23013e-08
-1.87295e-09
-1.34927e-08
-1.82221e-09
-1.45877e-08
-1.7271e-09
-1.55573e-08
-1.5891e-09
-1.4114e-09
-1.63766e-08
-2.34856e-11
1.50351e-11
-1.64986e-10
-1.10869e-10
-4.31604e-10
-2.49954e-10
-8.07611e-10
-3.66922e-10
-1.27815e-09
-4.65427e-10
-1.83303e-09
-5.52664e-10
-2.46548e-09
-6.33821e-10
-3.16994e-09
-7.1104e-10
-3.93989e-09
-7.83793e-10
-4.76632e-09
-8.49671e-10
-5.63698e-09
-9.0522e-10
-6.53624e-09
-9.4669e-10
-7.44554e-09
-9.70625e-10
-8.34421e-09
-9.74287e-10
-9.21049e-09
-9.55918e-10
-1.00227e-08
-9.14866e-10
-1.07603e-08
-8.51555e-10
-7.67087e-10
-1.14046e-08
7.01198e-14
1.49649e-11
-7.25943e-11
-3.8205e-11
-2.26764e-10
-9.57847e-11
-4.50365e-10
-1.43322e-10
-7.32993e-10
-1.82798e-10
-1.06803e-09
-2.17627e-10
-1.45165e-09
-2.50203e-10
-1.88113e-09
-2.81555e-10
-2.35338e-09
-3.1155e-10
-2.8638e-09
-3.39244e-10
-3.40579e-09
-3.63235e-10
-3.97051e-09
-3.81971e-10
-4.54714e-09
-3.93988e-10
-5.12334e-09
-3.9809e-10
-5.68581e-09
-3.93452e-10
-6.22099e-09
-3.7968e-10
-6.71574e-09
-3.56807e-10
-3.25067e-10
-7.15776e-09
8.9542e-12
6.01072e-12
-2.20497e-11
-7.20102e-12
-9.71113e-11
-2.07231e-11
-2.08786e-10
-3.16469e-11
-3.51031e-10
-4.05537e-11
-5.20278e-10
-4.83794e-11
-7.14733e-10
-5.5748e-11
-9.33357e-10
-6.2932e-11
-1.17499e-09
-6.9919e-11
-1.43773e-09
-7.6499e-11
-1.71862e-09
-8.23489e-11
-2.01349e-09
-8.71036e-11
-2.31706e-09
-9.04127e-11
-2.62317e-09
-9.19806e-11
-2.92503e-09
-9.15911e-11
-3.21559e-09
-8.91205e-11
-3.48787e-09
-8.45255e-11
-7.78201e-11
-3.73512e-09
6.01072e-12
-1.1903e-12
-2.19134e-11
-5.35604e-11
-9.4114e-11
-1.42493e-10
-1.98241e-10
-2.61173e-10
-3.31092e-10
-4.07591e-10
-4.8994e-10
-5.77044e-10
-6.67457e-10
-7.59437e-10
-8.51028e-10
-9.40149e-10
-1.02467e-09
-1.10249e-09
1.00331e-10
-1.0033e-10
3.62855e-10
-2.62524e-10
7.30828e-10
-3.67974e-10
1.14588e-09
-4.1505e-10
1.55939e-09
-4.1351e-10
1.93317e-09
-3.7378e-10
2.23865e-09
-3.05486e-10
2.45565e-09
-2.16996e-10
2.57084e-09
-1.15185e-10
2.57597e-09
-5.13535e-12
2.46711e-09
1.08857e-10
2.24236e-09
2.24758e-10
1.90131e-09
3.41048e-10
1.44401e-09
4.57293e-10
8.70256e-10
5.73759e-10
1.79108e-10
6.91148e-10
-6.31318e-10
8.10426e-10
-1.56389e-09
9.32569e-10
-2.62222e-09
1.05833e-09
-3.81037e-09
1.18815e-09
-5.13244e-09
1.32207e-09
-6.59205e-09
1.45961e-09
-8.19182e-09
1.59978e-09
-9.93287e-09
1.74105e-09
-1.18143e-08
1.8814e-09
-1.38326e-08
2.01833e-09
-1.59816e-08
2.14897e-09
-1.82516e-08
2.27006e-09
-2.06297e-08
2.37812e-09
-2.30992e-08
2.46947e-09
-2.56396e-08
2.54038e-09
-2.82267e-08
2.58714e-09
-3.08329e-08
2.6062e-09
-3.34273e-08
2.59431e-09
-3.59759e-08
2.54863e-09
-3.84428e-08
2.46687e-09
-4.07902e-08
2.34739e-09
-4.29795e-08
2.18931e-09
-4.49721e-08
1.99259e-09
-4.67301e-08
1.75804e-09
-4.82175e-08
1.48739e-09
-4.94007e-08
1.18319e-09
-5.02495e-08
8.48878e-10
-5.07382e-08
4.88693e-10
-5.08469e-08
1.08621e-10
-5.05549e-08
-2.91973e-10
-4.98549e-08
-7.00009e-10
-4.8742e-08
-1.11292e-09
-4.72172e-08
-1.52478e-09
-4.52872e-08
-1.92999e-09
-4.29638e-08
-2.3234e-09
-4.02634e-08
-2.70036e-09
-3.72066e-08
-3.05681e-09
-3.38174e-08
-3.38926e-09
-3.01225e-08
-3.69485e-09
-2.61513e-08
-3.97123e-09
-2.19348e-08
-4.21649e-09
-1.75058e-08
-4.42902e-09
-1.28985e-08
-4.60731e-09
-8.14872e-09
-4.74975e-09
-3.29448e-09
-4.85424e-09
1.62419e-09
-4.91867e-09
6.56539e-09
-4.9412e-09
1.14836e-08
-4.91822e-09
1.63296e-08
-4.84594e-09
2.1051e-08
-4.72146e-09
2.55926e-08
-4.54159e-09
2.98961e-08
-4.30347e-09
3.39011e-08
-4.00503e-09
3.75466e-08
-3.64545e-09
4.07721e-08
-3.22554e-09
4.35202e-08
-2.74815e-09
4.57387e-08
-2.21849e-09
4.73831e-08
-1.64432e-09
4.84191e-08
-1.03609e-09
4.88264e-08
-4.07278e-10
4.85963e-08
2.30076e-10
4.77439e-08
8.52477e-10
4.62968e-08
1.4471e-09
4.43015e-08
1.99527e-09
4.18213e-08
2.48023e-09
3.89341e-08
2.88722e-09
3.57295e-08
3.20455e-09
3.23049e-08
3.42458e-09
2.87606e-08
3.54436e-09
2.51946e-08
3.56597e-09
2.16982e-08
3.49641e-09
1.83512e-08
3.34698e-09
1.52189e-08
3.1323e-09
1.23499e-08
2.869e-09
9.77567e-09
2.57423e-09
7.51142e-09
2.26425e-09
5.5582e-09
1.95322e-09
3.90572e-09
1.65248e-09
2.53537e-09
1.37035e-09
1.42292e-09
1.11245e-09
5.40454e-10
8.8247e-10
-1.4251e-10
6.82964e-10
-6.58369e-10
5.15859e-10
-1.04074e-09
3.82368e-10
-1.32337e-09
2.8263e-10
-1.53858e-09
2.15213e-10
-1.71533e-09
1.76752e-10
-1.87747e-09
1.62138e-10
-2.0426e-09
1.65133e-10
-2.22181e-09
1.79204e-10
-2.42014e-09
1.98338e-10
-2.63775e-09
2.17601e-10
-2.87114e-09
2.33393e-10
-3.11457e-09
2.43429e-10
-3.36112e-09
2.46549e-10
-3.60358e-09
2.42467e-10
-3.8351e-09
2.3152e-10
-4.04957e-09
2.14466e-10
-4.24189e-09
1.92318e-10
-4.40812e-09
1.66232e-10
-4.54554e-09
1.37416e-10
-4.6526e-09
1.07065e-10
-4.7289e-09
7.63024e-11
-4.77505e-09
4.6141e-11
-4.79254e-09
1.7496e-11
-4.78343e-09
-9.10773e-12
-4.75055e-09
-3.28887e-11
-4.6969e-09
-5.36405e-11
-4.62576e-09
-7.11494e-11
-4.54039e-09
-8.53608e-11
-4.44404e-09
-9.63518e-11
-4.33974e-09
-1.04298e-10
-4.23029e-09
-1.0945e-10
-4.11819e-09
-1.12107e-10
-4.00559e-09
-1.12595e-10
-3.89434e-09
-1.11252e-10
-3.78593e-09
-1.08407e-10
-3.68156e-09
-1.04374e-10
-3.58212e-09
-9.94396e-11
-3.48826e-09
-9.38618e-11
-3.4004e-09
-8.78642e-11
-3.31876e-09
-8.16378e-11
-3.24342e-09
-7.53411e-11
-3.17431e-09
-6.91024e-11
-3.11129e-09
-6.30231e-11
-3.05411e-09
-5.71804e-11
-3.00248e-09
-5.16309e-11
-2.95607e-09
-4.64136e-11
-2.91451e-09
-4.15533e-11
-2.87745e-09
-3.70628e-11
-2.8445e-09
-3.29458e-11
-2.8153e-09
-2.91986e-11
-2.78949e-09
-2.58119e-11
-2.76672e-09
-2.27721e-11
-2.74666e-09
-2.00624e-11
-2.72899e-09
-1.76639e-11
-2.71344e-09
-1.55561e-11
-2.69972e-09
-1.37176e-11
-2.68759e-09
-1.21264e-11
-2.67683e-09
-1.07601e-11
-2.66724e-09
-9.59603e-12
-2.65863e-09
-8.61047e-12
-2.65085e-09
-7.77863e-12
-2.64378e-09
-7.07225e-12
-2.63732e-09
-6.45987e-12
-2.63141e-09
-5.90384e-12
-2.62605e-09
-5.35954e-12
-2.62128e-09
-4.77562e-12
-2.61718e-09
-4.09828e-12
-2.6139e-09
-3.28046e-12
-2.6116e-09
-2.29914e-12
-2.61044e-09
-1.1633e-12
-2.61049e-09
5.40567e-14
-2.61154e-09
1.05247e-12
-2.6131e-09
1.55898e-12
-2.61421e-09
1.10322e-12
-2.61319e-09
-1.01725e-12
-2.60752e-09
-5.66842e-12
-2.59383e-09
-1.36871e-11
-2.5673e-09
-2.65358e-11
-2.5205e-09
-4.67987e-11
-2.44085e-09
-7.96521e-11
-2.31012e-09
-1.30727e-10
-2.92906e-10
-2.01721e-09
2.05037e-10
-3.05367e-10
6.60538e-10
-7.18025e-10
1.24303e-09
-9.50465e-10
1.85169e-09
-1.02372e-09
2.40185e-09
-9.63669e-10
2.8246e-09
-7.96526e-10
3.0656e-09
-5.46482e-10
3.08334e-09
-2.34739e-10
2.84712e-09
1.21034e-10
2.33519e-09
5.06797e-10
1.53207e-09
9.11975e-10
4.27555e-10
1.32927e-09
-9.85565e-10
1.75417e-09
-2.71271e-09
2.18443e-09
-4.75847e-09
2.61953e-09
-7.12732e-09
3.05999e-09
-9.82374e-09
3.50685e-09
-1.28521e-08
3.96096e-09
-1.62163e-08
4.4225e-09
-1.99187e-08
4.89059e-09
-2.39596e-08
5.36291e-09
-2.83356e-08
5.83559e-09
-3.30389e-08
6.30312e-09
-3.80563e-08
6.75845e-09
-4.3368e-08
7.1931e-09
-4.89471e-08
7.59738e-09
-5.47588e-08
7.96071e-09
-6.07606e-08
8.27188e-09
-6.6902e-08
8.51948e-09
-7.31247e-08
8.6922e-09
-7.93636e-08
8.77929e-09
-8.55474e-08
8.77092e-09
-9.15998e-08
8.65858e-09
-9.74409e-08
8.43543e-09
-1.02989e-07
8.09663e-09
-1.08162e-07
7.63953e-09
-1.12878e-07
7.06392e-09
-1.17061e-07
6.37206e-09
-1.20637e-07
5.56873e-09
-1.2354e-07
4.66111e-09
-1.25711e-07
3.65862e-09
-1.27101e-07
2.57262e-09
-1.27668e-07
1.41608e-09
-1.27385e-07
2.05362e-10
-1.26227e-07
-1.04901e-09
-1.24193e-07
-2.32597e-09
-1.21283e-07
-3.61014e-09
-1.1751e-07
-4.88601e-09
-1.12896e-07
-6.13875e-09
-1.07471e-07
-7.35461e-09
-1.01273e-07
-8.52127e-09
-9.43456e-08
-9.62797e-09
-8.67368e-08
-1.06656e-08
-7.84991e-08
-1.16269e-08
-6.96881e-08
-1.25059e-08
-6.03613e-08
-1.3298e-08
-5.0578e-08
-1.39998e-08
-4.03989e-08
-1.46081e-08
-2.98861e-08
-1.51202e-08
-1.91032e-08
-1.55326e-08
-8.11644e-09
-1.5841e-08
3.00461e-09
-1.60397e-08
1.41839e-08
-1.61205e-08
2.53403e-08
-1.60746e-08
3.63877e-08
-1.58934e-08
4.72328e-08
-1.55666e-08
5.77746e-08
-1.50834e-08
6.79045e-08
-1.44334e-08
7.75071e-08
-1.36076e-08
8.6461e-08
-1.25993e-08
9.46412e-08
-1.14058e-08
1.01922e-07
-1.00288e-08
1.08179e-07
-8.47598e-09
1.13297e-07
-6.76177e-09
1.17169e-07
-4.90801e-09
1.19706e-07
-2.94436e-09
1.20843e-07
-9.07415e-10
1.20543e-07
1.15313e-09
1.18803e-07
3.18682e-09
1.15661e-07
5.13758e-09
1.11193e-07
6.9477e-09
1.05519e-07
8.56098e-09
9.8798e-08
9.92596e-09
9.12227e-08
1.09999e-08
8.30144e-08
1.17526e-08
7.44108e-08
1.21695e-08
6.56537e-08
1.22536e-08
5.69754e-08
1.20253e-08
4.85864e-08
1.15213e-08
4.06644e-08
1.07909e-08
3.33476e-08
9.89104e-09
2.6731e-08
8.88089e-09
2.08674e-08
7.81676e-09
1.5772e-08
6.74786e-09
1.14283e-08
5.71411e-09
7.79485e-09
4.74589e-09
4.81189e-09
3.86543e-09
2.40601e-09
3.08885e-09
4.94314e-10
2.42755e-09
-1.01192e-09
1.8886e-09
-2.20287e-09
1.47358e-09
-3.16509e-09
1.17744e-09
-3.97651e-09
9.88168e-10
-4.70204e-09
8.87675e-10
-5.39088e-09
8.53967e-10
-6.07572e-09
8.64042e-10
-6.77398e-09
8.96599e-10
-7.49033e-09
9.33955e-10
-8.2199e-09
9.6296e-10
-8.95147e-09
9.75007e-10
-9.6704e-09
9.65474e-10
-1.03608e-08
9.32906e-10
-1.10075e-08
8.78166e-10
-1.15967e-08
8.03711e-10
-1.21174e-08
7.12996e-10
-1.25612e-08
6.10022e-10
-1.29228e-08
4.98994e-10
-1.31998e-08
3.8405e-10
-1.33925e-08
2.69058e-10
-1.35038e-08
1.57466e-10
-1.35386e-08
5.22057e-11
-1.35032e-08
-4.44703e-11
-1.34053e-08
-1.30772e-10
-1.32533e-08
-2.0563e-10
-1.30559e-08
-2.68516e-10
-1.28219e-08
-3.19378e-10
-1.25597e-08
-3.58582e-10
-1.22772e-08
-3.86824e-10
-1.19816e-08
-4.05041e-10
-1.16794e-08
-4.14327e-10
-1.13761e-08
-4.15864e-10
-1.10765e-08
-4.10855e-10
-1.07844e-08
-4.00477e-10
-1.0503e-08
-3.85841e-10
-1.02344e-08
-3.67966e-10
-9.98052e-09
-3.47765e-10
-9.74235e-09
-3.26034e-10
-9.52054e-09
-3.0345e-10
-9.3153e-09
-2.8058e-10
-9.12652e-09
-2.57885e-10
-8.95382e-09
-2.35729e-10
-8.7966e-09
-2.14393e-10
-8.65415e-09
-1.94085e-10
-8.52561e-09
-1.7495e-10
-8.41008e-09
-1.57085e-10
-8.3066e-09
-1.40539e-10
-8.21422e-09
-1.25334e-10
-8.13196e-09
-1.11459e-10
-8.05888e-09
-9.8886e-11
-7.99408e-09
-8.75707e-11
-7.93669e-09
-7.74559e-11
-7.88588e-09
-6.84766e-11
-7.84087e-09
-6.05611e-11
-7.80096e-09
-5.36347e-11
-7.76546e-09
-4.76189e-11
-7.73379e-09
-4.24342e-11
-7.70539e-09
-3.79986e-11
-7.67977e-09
-3.42273e-11
-7.65652e-09
-3.10302e-11
-7.63528e-09
-2.83079e-11
-7.6158e-09
-2.5947e-11
-7.59788e-09
-2.38149e-11
-7.58149e-09
-2.1757e-11
-7.56666e-09
-1.95999e-11
-7.55359e-09
-1.71668e-11
-7.54256e-09
-1.43134e-11
-7.53387e-09
-1.09855e-11
-7.52774e-09
-7.30045e-12
-7.52402e-09
-3.66116e-12
-7.52208e-09
-8.92616e-13
-7.5203e-09
-2.20484e-13
-7.51563e-09
-3.56107e-12
-7.50345e-09
-1.32001e-11
-7.47701e-09
-3.21086e-11
-7.42695e-09
-6.37477e-11
-7.34077e-09
-1.12717e-10
-7.20112e-09
-1.86445e-10
-6.98334e-09
-2.97433e-10
-6.64439e-09
-4.6968e-10
-8.1308e-10
-6.12421e-09
1.85929e-10
-4.91296e-10
5.59509e-10
-1.09161e-09
9.77393e-10
-1.36835e-09
1.32685e-09
-1.37317e-09
1.5164e-09
-1.15322e-09
1.47174e-09
-7.51863e-10
1.13296e-09
-2.0771e-10
4.52311e-10
4.45914e-10
-6.07866e-10
1.18121e-09
-2.0769e-09
1.97583e-09
-3.97748e-09
2.81255e-09
-6.32702e-09
3.67882e-09
-9.13899e-09
4.56614e-09
-1.24238e-08
5.46922e-09
-1.61893e-08
6.38507e-09
-2.04413e-08
7.31195e-09
-2.51828e-08
8.24839e-09
-3.0414e-08
9.19217e-09
-3.6131e-08
1.01395e-08
-4.23248e-08
1.10844e-08
-4.89801e-08
1.20182e-08
-5.60738e-08
1.29293e-08
-6.35744e-08
1.38037e-08
-7.14405e-08
1.46246e-08
-7.96207e-08
1.53733e-08
-8.80531e-08
1.60298e-08
-9.66658e-08
1.65734e-08
-1.05377e-07
1.69834e-08
-1.14098e-07
1.72401e-08
-1.22731e-07
1.73252e-08
-1.31174e-07
1.72227e-08
-1.39323e-07
1.69198e-08
-1.47072e-07
1.64069e-08
-1.54315e-07
1.56786e-08
-1.60951e-07
1.47334e-08
-1.66886e-07
1.35741e-08
-1.7203e-07
1.22081e-08
-1.76305e-07
1.06465e-08
-1.7964e-07
8.90451e-09
-1.8198e-07
7.00058e-09
-1.83277e-07
4.95614e-09
-1.835e-07
2.79494e-09
-1.82626e-07
5.42822e-10
-1.80648e-07
-1.77267e-09
-1.77573e-07
-4.12426e-09
-1.73415e-07
-6.4842e-09
-1.68199e-07
-8.82644e-09
-1.61958e-07
-1.11264e-08
-1.54736e-07
-1.33613e-08
-1.4658e-07
-1.55107e-08
-1.37544e-07
-1.75567e-08
-1.27688e-07
-1.94844e-08
-1.17072e-07
-2.12813e-08
-1.05761e-07
-2.29381e-08
-9.38191e-08
-2.44477e-08
-8.1312e-08
-2.58051e-08
-6.83052e-08
-2.70066e-08
-5.48642e-08
-2.80492e-08
-4.10544e-08
-2.89299e-08
-2.69425e-08
-2.96446e-08
-1.25962e-08
-3.01873e-08
1.91385e-09
-3.05497e-08
1.65117e-08
-3.07183e-08
3.11148e-08
-3.06777e-08
4.56342e-08
-3.04128e-08
5.99723e-08
-2.99047e-08
7.40219e-08
-2.9133e-08
8.76658e-08
-2.80773e-08
1.00776e-07
-2.67182e-08
1.13217e-07
-2.50395e-08
1.24841e-07
-2.30297e-08
1.35496e-07
-2.06842e-08
1.45026e-07
-1.80065e-08
1.53275e-07
-1.50106e-08
1.60089e-07
-1.1722e-08
1.65324e-07
-8.17916e-09
1.68851e-07
-4.43472e-09
1.70561e-07
-5.56319e-10
1.70376e-07
3.3719e-09
1.68261e-07
7.25222e-09
1.6423e-07
1.09789e-08
1.5835e-07
1.44413e-08
1.50747e-07
1.75288e-08
1.41609e-07
2.0138e-08
1.3118e-07
2.21809e-08
1.19756e-07
2.35936e-08
1.07667e-07
2.43432e-08
9.52592e-08
2.44328e-08
8.28778e-08
2.39027e-08
7.08413e-08
2.28274e-08
5.94248e-08
2.13075e-08
4.88456e-08
1.94601e-08
3.92562e-08
1.74061e-08
3.07445e-08
1.52596e-08
2.33382e-08
1.31203e-08
1.70148e-08
1.10694e-08
1.17104e-08
9.16975e-09
7.33063e-09
7.46866e-09
3.7585e-09
5.99969e-09
8.63501e-10
4.7836e-09
-1.49021e-09
3.82729e-09
-3.43488e-09
3.12211e-09
-5.09046e-09
2.64375e-09
-6.55785e-09
2.35507e-09
-7.91474e-09
2.21085e-09
-9.21446e-09
2.16377e-09
-1.04877e-08
2.16984e-09
-1.17462e-08
2.1924e-09
-1.29871e-08
2.20392e-09
-1.41983e-08
2.18614e-09
-1.53618e-08
2.12902e-09
-1.6458e-08
2.02908e-09
-1.74675e-08
1.88772e-09
-1.83736e-08
1.70974e-09
-1.91626e-08
1.50204e-09
-1.98252e-08
1.27265e-09
-2.03563e-08
1.03003e-09
-2.07547e-08
7.82438e-10
-2.10231e-08
5.37522e-10
-2.11677e-08
3.02026e-10
-2.1197e-08
8.15702e-11
-2.1122e-08
-1.19472e-10
-2.09549e-08
-2.97952e-10
-2.07085e-08
-4.51952e-10
-2.03964e-08
-5.80663e-10
-2.00315e-08
-6.84235e-10
-1.96265e-08
-7.63616e-10
-1.9193e-08
-8.20377e-10
-1.87415e-08
-8.56542e-10
-1.82814e-08
-8.74419e-10
-1.78208e-08
-8.76464e-10
-1.73665e-08
-8.65161e-10
-1.6924e-08
-8.4292e-10
-1.64978e-08
-8.12011e-10
-1.60913e-08
-7.7451e-10
-1.57068e-08
-7.32272e-10
-1.53459e-08
-6.86915e-10
-1.50095e-08
-6.3982e-10
-1.4698e-08
-5.92137e-10
-1.44111e-08
-5.44807e-10
-1.41482e-08
-4.98576e-10
-1.39086e-08
-4.5402e-10
-1.36911e-08
-4.11568e-10
-1.34945e-08
-3.71524e-10
-1.33175e-08
-3.34088e-10
-1.31587e-08
-2.99371e-10
-1.30166e-08
-2.67418e-10
-1.28899e-08
-2.38218e-10
-1.2777e-08
-2.11716e-10
-1.26768e-08
-1.87825e-10
-1.25878e-08
-1.66432e-10
-1.25089e-08
-1.47406e-10
-1.24388e-08
-1.30604e-10
-1.23766e-08
-1.15872e-10
-1.23212e-08
-1.03052e-10
-1.22716e-08
-9.19791e-11
-1.22271e-08
-8.24858e-11
-1.21869e-08
-7.43973e-11
-1.21505e-08
-6.75282e-11
-1.21171e-08
-6.1675e-11
-1.20864e-08
-5.66074e-11
-1.20582e-08
-5.20595e-11
-1.20322e-08
-4.77257e-11
-1.20085e-08
-4.32702e-11
-1.19873e-08
-3.83629e-11
-1.19689e-08
-3.27523e-11
-1.19535e-08
-2.63889e-11
-1.19412e-08
-1.95977e-11
-1.19316e-08
-1.32942e-11
-1.19233e-08
-9.19841e-12
-1.19135e-08
-1.00016e-11
-1.18975e-08
-1.9534e-11
-1.18681e-08
-4.26193e-11
-1.18151e-08
-8.51494e-11
-1.17247e-08
-1.54066e-10
-1.15795e-08
-2.57961e-10
-1.13569e-08
-4.09067e-10
-1.10275e-08
-6.26759e-10
-1.05518e-08
-9.45417e-10
-1.43235e-09
-9.93253e-09
8.2097e-11
-5.73393e-10
1.73897e-10
-1.18341e-09
1.50888e-10
-1.34534e-09
-8.52204e-11
-1.13706e-09
-6.13121e-10
-6.25321e-10
-1.49669e-09
1.31707e-10
-2.78818e-09
1.08378e-09
-4.53076e-09
2.1885e-09
-6.76017e-09
3.41062e-09
-9.50602e-09
4.72168e-09
-1.27927e-08
6.09926e-09
-1.66401e-08
7.52617e-09
-2.10635e-08
8.98957e-09
-2.60741e-08
1.04798e-08
-3.16782e-08
1.19892e-08
-3.78771e-08
1.35108e-08
-4.46659e-08
1.50372e-08
-5.20327e-08
1.65589e-08
-5.99571e-08
1.80639e-08
-6.84094e-08
1.95367e-08
-7.7349e-08
2.09578e-08
-8.67242e-08
2.23045e-08
-9.64713e-08
2.35507e-08
-1.06515e-07
2.46679e-08
-1.16767e-07
2.56261e-08
-1.27133e-07
2.63951e-08
-1.37505e-07
2.69455e-08
-1.47771e-07
2.72501e-08
-1.57816e-07
2.72846e-08
-1.6752e-07
2.7029e-08
-1.76765e-07
2.6468e-08
-1.85437e-07
2.5592e-08
-1.93427e-07
2.43969e-08
-2.00633e-07
2.28848e-08
-2.06964e-07
2.10637e-08
-2.12337e-07
1.89472e-08
-2.16683e-07
1.65541e-08
-2.19944e-07
1.39081e-08
-2.22077e-07
1.10368e-08
-2.23048e-07
7.97146e-09
-2.22837e-07
4.7459e-09
-2.21439e-07
1.39626e-09
-2.18856e-07
-2.03962e-09
-2.15105e-07
-5.52428e-09
-2.10208e-07
-9.02081e-09
-2.04199e-07
-1.24938e-08
-1.97116e-07
-1.59093e-08
-1.89006e-07
-1.92359e-08
-1.79922e-07
-2.2445e-08
-1.69922e-07
-2.55111e-08
-1.59066e-07
-2.84129e-08
-1.47418e-07
-3.11325e-08
-1.35043e-07
-3.36564e-08
-1.22006e-07
-3.59745e-08
-1.08374e-07
-3.80802e-08
-9.42091e-08
-3.99698e-08
-7.95745e-08
-4.16412e-08
-6.45307e-08
-4.3093e-08
-4.91372e-08
-4.43234e-08
-3.34527e-08
-4.53291e-08
-1.75363e-08
-4.61036e-08
-1.44951e-09
-4.66366e-08
1.47448e-08
-4.69126e-08
3.09772e-08
-4.69101e-08
4.7169e-08
-4.66046e-08
6.32335e-08
-4.59692e-08
7.90738e-08
-4.49733e-08
9.45819e-08
-4.35854e-08
1.09638e-07
-4.17745e-08
1.24112e-07
-3.95129e-08
1.3786e-07
-3.67781e-08
1.50732e-07
-3.35557e-08
1.62566e-07
-2.98412e-08
1.73198e-07
-2.56423e-08
1.82457e-07
-2.09814e-08
1.90176e-07
-1.58973e-08
1.96188e-07
-1.04471e-08
2.00339e-07
-4.70772e-09
2.0249e-07
1.22164e-09
2.02524e-07
7.21813e-09
2.00367e-07
1.31357e-08
1.95994e-07
1.8814e-08
1.89441e-07
2.40823e-08
1.80812e-07
2.87669e-08
1.7029e-07
3.27031e-08
1.58134e-07
3.57489e-08
1.44678e-07
3.77995e-08
1.3031e-07
3.88008e-08
1.15455e-07
3.8758e-08
1.00544e-07
3.77385e-08
8.59845e-08
3.58666e-08
7.21343e-08
3.33103e-08
5.92778e-08
3.02626e-08
4.76157e-08
2.69217e-08
3.72629e-08
2.34731e-08
2.82544e-08
2.00779e-08
2.05564e-08
1.68677e-08
1.40806e-08
1.39445e-08
8.69741e-09
1.13828e-08
4.25081e-09
9.2302e-09