/*--------------------------------*- C++ -*----------------------------------*\
  =========                 |
  \\      /  F ield         | OpenFOAM: The Open Source CFD Toolbox
   \\    /   O peration     | Website:  https://openfoam.org
    \\  /    A nd           | Version:  8
     \\/     M anipulation  |
\*---------------------------------------------------------------------------*/
FoamFile
{
    version     2.0;
    format      ascii;
    class       volVectorField;
    location    "0.6";
    object      U;
}
// * * * * * * * * * * * * * * * * * * * * * * * * * * * * * * * * * * * * * //

dimensions      [0 1 -1 0 0 0 0];

internalField   nonuniform List<vector> 
12225
(
(-9.25312e-06 1.27045e-06 0)
(-6.2886e-06 -6.22188e-07 0)
(3.14721e-05 -1.7379e-06 0)
(9.59498e-05 -2.79298e-06 0)
(0.000183858 -3.75818e-06 0)
(0.000292147 -4.72315e-06 0)
(0.000419197 -5.72132e-06 0)
(0.000564076 -6.79989e-06 0)
(0.000726677 -8.02273e-06 0)
(0.000907959 -9.5003e-06 0)
(0.00111045 -1.14228e-05 0)
(0.00133886 -1.41146e-05 0)
(0.00160089 -1.81498e-05 0)
(0.0019071 -2.44675e-05 0)
(0.00226839 -3.33136e-05 0)
(0.00268955 -3.67563e-05 0)
(0.00309633 -6.22743e-05 0)
(0.000700189 0.00176557 0)
(-1.9159e-05 3.62182e-06 0)
(9.83228e-07 -9.89836e-06 0)
(0.000116107 -2.42042e-05 0)
(0.000307676 -3.75109e-05 0)
(0.000566579 -5.01319e-05 0)
(0.000884238 -6.25666e-05 0)
(0.00125549 -7.52162e-05 0)
(0.00167691 -8.84863e-05 0)
(0.002147 -0.000102926 0)
(0.00266652 -0.000119389 0)
(0.0032392 -0.000139164 0)
(0.00387194 -0.000164018 0)
(0.00457348 -0.000195886 0)
(0.0053469 -0.000234882 0)
(0.00616643 -0.000268641 0)
(0.00689312 -0.000216579 0)
(0.00709676 0.000286229 0)
(0.00243516 0.0043 0)
(-2.25356e-05 5.07593e-06 0)
(2.65688e-05 -3.1915e-05 0)
(0.000223806 -7.32568e-05 0)
(0.000544189 -0.000112098 0)
(0.000973552 -0.000149167 0)
(0.00149817 -0.000185584 0)
(0.00210893 -0.000222357 0)
(0.00279904 -0.000260455 0)
(0.00356413 -0.000301123 0)
(0.00440227 -0.000346154 0)
(0.00531396 -0.000397897 0)
(0.00630043 -0.00045861 0)
(0.00735741 -0.000527762 0)
(0.00845552 -0.00059273 0)
(0.00949048 -0.000594795 0)
(0.0101296 -0.000302156 0)
(0.00963265 0.00114444 0)
(0.00412252 0.00736211 0)
(-2.09375e-05 2.88625e-06 0)
(6.82703e-05 -7.09156e-05 0)
(0.000352405 -0.000154671 0)
(0.000802447 -0.000234097 0)
(0.00139991 -0.000310182 0)
(0.00212631 -0.000384732 0)
(0.00296814 -0.000459482 0)
(0.0039143 -0.000536 0)
(0.00495582 -0.000616159 0)
(0.00608516 -0.000702352 0)
(0.00729485 -0.000796967 0)
(0.00857273 -0.000899928 0)
(0.00988955 -0.00100114 0)
(0.0111677 -0.0010587 0)
(0.0122133 -0.000933613 0)
(0.0125484 -0.000194742 0)
(0.0113327 0.00245449 0)
(0.00579714 0.0106036 0)
(-1.57068e-05 -6.18932e-06 0)
(0.000123487 -0.000131057 0)
(0.000498735 -0.000272784 0)
(0.00107797 -0.000408334 0)
(0.00183894 -0.000538522 0)
(0.00275876 -0.000665715 0)
(0.00381908 -0.000792267 0)
(0.00500349 -0.000920097 0)
(0.00629656 -0.00105118 0)
(0.00768227 -0.00118743 0)
(0.0091407 -0.00132899 0)
(0.01064 -0.00146878 0)
(0.0121187 -0.00157781 0)
(0.0134474 -0.00156835 0)
(0.0143593 -0.0011996 0)
(0.0143185 0.000153288 0)
(0.0125694 0.0040398 0)
(0.00745102 0.0136712 0)
(-7.94993e-06 -2.53195e-05 0)
(0.000189202 -0.000216931 0)
(0.000658482 -0.000432512 0)
(0.0013646 -0.000640097 0)
(0.00228179 -0.000839806 0)
(0.00338302 -0.00103427 0)
(0.00464475 -0.00122607 0)
(0.00604424 -0.0014169 0)
(0.00755794 -0.0016078 0)
(0.00915876 -0.00179837 0)
(0.0108109 -0.00198324 0)
(0.0124593 -0.00214253 0)
(0.0140088 -0.00221919 0)
(0.0152864 -0.00206814 0)
(0.0159856 -0.00134417 0)
(0.0155965 0.000724783 0)
(0.0135534 0.00575062 0)
(0.00906835 0.0164213 0)
(1.38587e-06 -5.74618e-05 0)
(0.000261971 -0.00033333 0)
(0.000826169 -0.000639005 0)
(0.00165444 -0.0009347 0)
(0.00271736 -0.00121938 0)
(0.00398401 -0.00149547 0)
(0.00542535 -0.00176515 0)
(0.00701152 -0.0020289 0)
(0.00870953 -0.00228531 0)
(0.0104794 -0.00252921 0)
(0.0122678 -0.00274585 0)
(0.0139961 -0.00289691 0)
(0.01554 -0.00289049 0)
(0.0166994 -0.00252077 0)
(0.0171662 -0.0013533 0)
(0.0165158 0.00146627 0)
(0.0144052 0.0074707 0)
(0.0106415 0.0188069 0)
(1.14736e-05 -0.00010533 0)
(0.000337958 -0.000484878 0)
(0.000995148 -0.000897081 0)
(0.00193774 -0.00129672 0)
(0.00313227 -0.00168136 0)
(0.00454406 -0.00205261 0)
(0.00613845 -0.00241133 0)
(0.00787805 -0.00275551 0)
(0.0097197 -0.00307933 0)
(0.01161 -0.00337004 0)
(0.0134784 -0.00359971 0)
(0.0152256 -0.00370719 0)
(0.0167077 -0.00356296 0)
(0.0177174 -0.00290588 0)
(0.0179778 -0.00123953 0)
(0.0171807 0.00230742 0)
(0.0151881 0.00910255 0)
(0.0121642 0.0207999 0)
(2.15885e-05 -0.000171202 0)
(0.000412998 -0.000675606 0)
(0.00115767 -0.00121069 0)
(0.00220299 -0.0017294 0)
(0.00351081 -0.00222791 0)
(0.00504294 -0.0027064 0)
(0.00675922 -0.00316329 0)
(0.00861478 -0.00359245 0)
(0.0105565 -0.00398154 0)
(0.0125185 -0.00430744 0)
(0.0144151 -0.00452592 0)
(0.0161326 -0.00455081 0)
(0.0175192 -0.00421691 0)
(0.0183794 -0.00322043 0)
(0.0184902 -0.00103559 0)
(0.0176648 0.00317131 0)
(0.0159274 0.0105629 0)
(0.013625 0.0223768 0)
(3.10802e-05 -0.000256691 0)
(0.000482662 -0.00090843 0)
(0.001305 -0.0015823 0)
(0.00243695 -0.00223395 0)
(0.00383516 -0.00285859 0)
(0.00545813 -0.00345435 0)
(0.00726079 -0.00401596 0)
(0.00919152 -0.00453153 0)
(0.0111885 -0.00498 0)
(0.0131753 -0.00532556 0)
(0.015056 -0.00550584 0)
(0.0167098 -0.00541016 0)
(0.0179887 -0.00484392 0)
(0.0187244 -0.00347788 0)
(0.018758 -0.00078878 0)
(0.0180118 0.00398057 0)
(0.0166221 0.0117813 0)
(0.0150054 0.0235176 0)
(3.93568e-05 -0.00036256 0)
(0.000542352 -0.00118445 0)
(0.0014276 -0.00201208 0)
(0.00262494 -0.00280871 0)
(0.00408557 -0.00356944 0)
(0.00576516 -0.0042899 0)
(0.00761472 -0.00495995 0)
(0.00957737 -0.00556031 0)
(0.0115848 -0.0060594 0)
(0.0135538 -0.00640715 0)
(0.0153834 -0.00652286 0)
(0.016954 -0.00627447 0)
(0.0181316 -0.00544741 0)
(0.0187839 -0.00370558 0)
(0.0188165 -0.000555061 0)
(0.0182378 0.00466208 0)
(0.0172513 0.0126993 0)
(0.0162768 0.0242038 0)
(4.54769e-05 -0.000478238 0)
(0.000583846 -0.00147574 0)
(0.00150827 -0.00245659 0)
(0.00274108 -0.00339491 0)
(0.00422852 -0.00428691 0)
(0.00592449 -0.00512582 0)
(0.00777779 -0.00589617 0)
(0.00972878 -0.00657068 0)
(0.0117061 -0.00710702 0)
(0.0136243 -0.00744161 0)
(0.0153835 -0.00747829 0)
(0.0168716 -0.00707007 0)
(0.0179744 -0.00599394 0)
(0.018595 -0.00392311 0)
(0.0186907 -0.000408236 0)
(0.0183267 0.00510986 0)
(0.0177345 0.0132255 0)
(0.0173064 0.0244065 0)
(5.0422e-05 -0.000607304 0)
(0.000610818 -0.001794 0)
(0.00155416 -0.0029349 0)
(0.00279716 -0.00401871 0)
(0.00428151 -0.00504385 0)
(0.00596025 -0.0060013 0)
(0.00778163 -0.00686982 0)
(0.00968545 -0.00761359 0)
(0.0116002 -0.00817919 0)
(0.0134423 -0.00849006 0)
(0.015117 -0.00843691 0)
(0.0165249 -0.00786285 0)
(0.0175741 -0.00654482 0)
(0.0182019 -0.00417623 0)
(0.0184078 -0.00036144 0)
(0.0182936 0.00536094 0)
(0.0180968 0.013448 0)
(0.0181696 0.0242299 0)
(5.41353e-05 -0.00076941 0)
(0.000619062 -0.00218915 0)
(0.00155276 -0.00351959 0)
(0.00276909 -0.00477227 0)
(0.004206 -0.00594986 0)
(0.00581722 -0.00704109 0)
(0.00755293 -0.00801799 0)
(0.00935558 -0.00883473 0)
(0.0111579 -0.0094255 0)
(0.0128828 -0.00970051 0)
(0.0144474 -0.00953919 0)
(0.0157706 -0.00878019 0)
(0.0167871 -0.00721025 0)
(0.017468 -0.00455653 0)
(0.0178472 -0.00049068 0)
(0.0180474 0.00534443 0)
(0.0182937 0.0132773 0)
(0.0188877 0.0235235 0)
(5.4826e-05 -0.000964413 0)
(0.000593613 -0.00266074 0)
(0.00146927 -0.00420741 0)
(0.00259799 -0.00564812 0)
(0.00391741 -0.00699302 0)
(0.0053848 -0.00822922 0)
(0.00695626 -0.0093218 0)
(0.00858188 -0.0102144 0)
(0.0102044 -0.0108287 0)
(0.0117603 -0.011063 0)
(0.0131846 -0.0107895 0)
(0.0144195 -0.0098498 0)
(0.0154277 -0.00805096 0)
(0.0162094 -0.00516573 0)
(0.0168204 -0.000941483 0)
(0.0173867 0.00487585 0)
(0.0181057 0.0125013 0)
(0.0192224 0.0220589 0)
(5.00171e-05 -0.00118248 0)
(0.000514279 -0.0031845 0)
(0.00125699 -0.00496189 0)
(0.0022051 -0.00659783 0)
(0.00330305 -0.00811428 0)
(0.0045165 -0.00949863 0)
(0.00581298 -0.0107103 0)
(0.00715677 -0.0116834 0)
(0.00850777 -0.0123293 0)
(0.0098231 -0.0125378 0)
(0.0110616 -0.0121791 0)
(0.0121918 -0.0111055 0)
(0.013202 -0.00915293 0)
(0.0141129 -0.00614628 0)
(0.0149882 -0.0019091 0)
(0.0159407 0.00371905 0)
(0.0171293 0.010859 0)
(0.0187419 0.0195641 0)
(3.67861e-05 -0.00139392 0)
(0.00035726 -0.00368928 0)
(0.000861467 -0.00568139 0)
(0.00149873 -0.00749449 0)
(0.00223156 -0.00916628 0)
(0.0030408 -0.0106879 0)
(0.00391183 -0.0120164 0)
(0.00482993 -0.0130807 0)
(0.00577925 -0.0137858 0)
(0.00674371 -0.0140182 0)
(0.00771018 -0.0136521 0)
(0.00867375 -0.0125553 0)
(0.00964442 -0.0105959 0)
(0.0106541 -0.00764922 0)
(0.0117623 -0.003606 0)
(0.013057 0.00161741 0)
(0.0146535 0.00806816 0)
(0.0166854 0.0157479 0)
(1.21974e-05 -0.0015341 0)
(0.000102133 -0.00402259 0)
(0.000237972 -0.00615183 0)
(0.000404667 -0.00807654 0)
(0.000595848 -0.00985048 0)
(0.000814553 -0.0114728 0)
(0.00106892 -0.0129044 0)
(0.00136999 -0.0140754 0)
(0.00173048 -0.0148916 0)
(0.00216457 -0.0152424 0)
(0.00268885 -0.0150099 0)
(0.00332436 -0.0140787 0)
(0.00409938 -0.0123444 0)
(0.00505206 -0.00972147 0)
(0.00623211 -0.00614961 0)
(0.00770069 -0.00159868 0)
(0.0095297 0.00392824 0)
(0.0118065 0.010395 0)
(-2.61142e-05 -0.00148817 0)
(-0.000246033 -0.00391517 0)
(-0.000595643 -0.00599535 0)
(-0.00104442 -0.0078817 0)
(-0.00155976 -0.00963509 0)
(-0.00211434 -0.0112653 0)
(-0.00267784 -0.0127447 0)
(-0.00321481 -0.0140147 0)
(-0.00368549 -0.0149917 0)
(-0.00404696 -0.015576 0)
(-0.00425432 -0.0156618 0)
(-0.00426163 -0.0151484 0)
(-0.00402258 -0.0139495 0)
(-0.00349119 -0.012001 0)
(-0.00262262 -0.00926632 0)
(-0.00137357 -0.00573818 0)
(0.000298479 -0.00143854 0)
(0.00244228 0.00358325 0)
(-5.33339e-05 -0.00121479 0)
(-0.00051289 -0.00326037 0)
(-0.00124416 -0.00505522 0)
(-0.00218523 -0.0067068 0)
(-0.00327978 -0.00826437 0)
(-0.00448913 -0.00974331 0)
(-0.00577355 -0.0111298 0)
(-0.00708674 -0.0123822 0)
(-0.00837548 -0.0134354 0)
(-0.00958073 -0.0142071 0)
(-0.0106395 -0.0146075 0)
(-0.0114876 -0.0145488 0)
(-0.0120619 -0.0139548 0)
(-0.0123037 -0.0127678 0)
(-0.0121608 -0.010954 0)
(-0.0115895 -0.00850549 0)
(-0.010553 -0.0054402 0)
(-0.00901344 -0.00180007 0)
(-6.29096e-05 -0.000903761 0)
(-0.000628135 -0.00251875 0)
(-0.00153906 -0.00398544 0)
(-0.00272313 -0.005355 0)
(-0.00411794 -0.00666006 0)
(-0.00568395 -0.00791759 0)
(-0.00738169 -0.00912415 0)
(-0.00916512 -0.0102536 0)
(-0.0109803 -0.0112584 0)
(-0.0127655 -0.012075 0)
(-0.0144529 -0.0126306 0)
(-0.0159712 -0.0128519 0)
(-0.0172489 -0.0126726 0)
(-0.0182183 -0.0120404 0)
(-0.018819 -0.0109215 0)
(-0.0190006 -0.00930279 0)
(-0.0187219 -0.0071923 0)
(-0.0179455 -0.00461863 0)
(-5.95538e-05 -0.000607346 0)
(-0.000632028 -0.00180368 0)
(-0.00157772 -0.00293958 0)
(-0.00282688 -0.00401427 0)
(-0.00432086 -0.005045 0)
(-0.00602366 -0.00604837 0)
(-0.00790021 -0.00702825 0)
(-0.00991013 -0.00797085 0)
(-0.0120055 -0.00884458 0)
(-0.0141298 -0.00960326 0)
(-0.0162187 -0.0101916 0)
(-0.0182021 -0.0105514 0)
(-0.0200074 -0.0106283 0)
(-0.0215636 -0.0103769 0)
(-0.0228051 -0.00976475 0)
(-0.0236754 -0.00877487 0)
(-0.0241273 -0.00740653 0)
(-0.0241197 -0.00567582 0)
(-4.74121e-05 -0.000366397 0)
(-0.000558534 -0.00120632 0)
(-0.00143731 -0.00204563 0)
(-0.00262406 -0.00284689 0)
(-0.00406797 -0.00361684 0)
(-0.00573738 -0.00437071 0)
(-0.00760255 -0.00511642 0)
(-0.00963061 -0.00584874 0)
(-0.0117825 -0.00654832 0)
(-0.014011 -0.00718374 0)
(-0.0162602 -0.00771531 0)
(-0.0184672 -0.00809978 0)
(-0.0205642 -0.00829506 0)
(-0.0224827 -0.00826436 0)
(-0.0241569 -0.00797942 0)
(-0.0255275 -0.00742252 0)
(-0.0265437 -0.00658745 0)
(-0.0271614 -0.00548078 0)
(-3.06368e-05 -0.000192815 0)
(-0.000442976 -0.00075409 0)
(-0.00119689 -0.00134579 0)
(-0.00224462 -0.00191248 0)
(-0.00354335 -0.00245565 0)
(-0.00506495 -0.00298865 0)
(-0.00678463 -0.00352072 0)
(-0.00867697 -0.00405166 0)
(-0.0107122 -0.00457063 0)
(-0.0128534 -0.00505749 0)
(-0.0150555 -0.00548542 0)
(-0.0172654 -0.00582413 0)
(-0.0194245 -0.00604318 0)
(-0.0214708 -0.0061149 0)
(-0.023343 -0.0060168 0)
(-0.0249837 -0.00573313 0)
(-0.0263419 -0.00525568 0)
(-0.0273732 -0.00458511 0)
(-1.27348e-05 -8.16522e-05 0)
(-0.000314474 -0.00043787 0)
(-0.000920323 -0.000833021 0)
(-0.00179263 -0.00121016 0)
(-0.00289505 -0.00156938 0)
(-0.00420214 -0.00192171 0)
(-0.0056935 -0.00227579 0)
(-0.00735024 -0.00263366 0)
(-0.00915102 -0.00298987 0)
(-0.0110688 -0.00333231 0)
(-0.0130692 -0.00364396 0)
(-0.0151103 -0.00390497 0)
(-0.0171438 -0.00409484 0)
(-0.0191174 -0.00419432 0)
(-0.0209775 -0.00418707 0)
(-0.0226721 -0.00406078 0)
(-0.0241536 -0.00380773 0)
(-0.0253805 -0.00342561 0)
(3.53601e-06 -2.0209e-05 0)
(-0.000194052 -0.000232426 0)
(-0.000651999 -0.000478132 0)
(-0.00133954 -0.000710264 0)
(-0.00222525 -0.000929328 0)
(-0.00328626 -0.00114372 0)
(-0.00450616 -0.00136029 0)
(-0.00587159 -0.00158155 0)
(-0.00736824 -0.00180509 0)
(-0.00897757 -0.00202419 0)
(-0.0106749 -0.00222884 0)
(-0.0124289 -0.00240706 0)
(-0.0142022 -0.00254613 0)
(-0.015953 -0.00263384 0)
(-0.0176374 -0.00265944 0)
(-0.0192112 -0.00261441 0)
(-0.020633 -0.0024928 0)
(-0.0218669 -0.00229149 0)
(1.5992e-05 6.23288e-06 0)
(-9.53208e-05 -0.000109013 0)
(-0.000418806 -0.000246376 0)
(-0.00092788 -0.000374049 0)
(-0.00159559 -0.000493166 0)
(-0.00240224 -0.000609368 0)
(-0.00333524 -0.000727272 0)
(-0.00438577 -0.000848877 0)
(-0.00554507 -0.000973331 0)
(-0.00680142 -0.00109727 0)
(-0.00813834 -0.00121544 0)
(-0.00953391 -0.00132134 0)
(-0.0109611 -0.00140799 0)
(-0.0123887 -0.0014685 0)
(-0.0137831 -0.00149664 0)
(-0.0151096 -0.00148728 0)
(-0.0163347 -0.00143662 0)
(-0.0174296 -0.00134195 0)
(2.27135e-05 1.16717e-05 0)
(-2.59881e-05 -4.19199e-05 0)
(-0.000234126 -0.000106098 0)
(-0.000578544 -0.000164509 0)
(-0.00103754 -0.000218279 0)
(-0.00159568 -0.000270533 0)
(-0.00224413 -0.000323775 0)
(-0.00297771 -0.000379186 0)
(-0.00379171 -0.000436563 0)
(-0.00467961 -0.000494508 0)
(-0.00563147 -0.000550705 0)
(-0.00663338 -0.000602237 0)
(-0.0076675 -0.000645899 0)
(-0.00871273 -0.00067848 0)
(-0.00974567 -0.000697007 0)
(-0.0107417 -0.000698948 0)
(-0.0116765 -0.000682337 0)
(-0.0125291 -0.000645383 0)
(2.17044e-05 7.7623e-06 0)
(1.05224e-05 -1.07509e-05 0)
(-0.000101955 -3.1903e-05 0)
(-0.000297912 -5.06318e-05 0)
(-0.000562563 -6.75645e-05 0)
(-0.000885883 -8.39377e-05 0)
(-0.00126274 -0.0001007 0)
(-0.00169066 -0.000118323 0)
(-0.00216771 -0.000136803 0)
(-0.00269098 -0.000155735 0)
(-0.00325556 -0.000174406 0)
(-0.00385407 -0.000191896 0)
(-0.00447668 -0.000207175 0)
(-0.00511142 -0.000219195 0)
(-0.00574473 -0.000226964 0)
(-0.00636207 -0.000229606 0)
(-0.00694856 -0.000226398 0)
(-0.00749159 -0.000216413 0)
(1.12096e-05 2.32232e-06 0)
(1.39968e-05 -3.9091e-07 0)
(-2.02913e-05 -2.12635e-06 0)
(-8.35526e-05 -3.56642e-06 0)
(-0.000170042 -4.79765e-06 0)
(-0.000276075 -5.97566e-06 0)
(-0.000399982 -7.19731e-06 0)
(-0.000541161 -8.51276e-06 0)
(-0.000699285 -9.93044e-06 0)
(-0.000873718 -1.14254e-05 0)
(-0.00106315 -1.29464e-05 0)
(-0.00126543 -1.44252e-05 0)
(-0.0014775 -1.57822e-05 0)
(-0.00169555 -1.69342e-05 0)
(-0.00191513 -1.77999e-05 0)
(-0.00213137 -1.83089e-05 0)
(-0.00233909 -1.83558e-05 0)
(-0.00253391 -1.77784e-05 0)
(2.3406e-05 -5.35111e-05 6.686e-24)
(0.000189332 -0.000137421 -9.07611e-24)
(0.000471266 -0.000192947 0)
(0.000828073 -0.000220449 0)
(0.00120541 -0.000226467 0)
(0.00156248 -0.000216881 6.32692e-24)
(0.00186986 -0.000196772 0)
(0.0021063 -0.000170391 0)
(0.00225714 -0.000141034 0)
(0.00231299 -0.000111026 0)
(0.00226853 -8.18199e-05 8.65262e-24)
(0.00212128 -5.42259e-05 0)
(0.00187027 -2.84833e-05 0)
(0.00151536 -4.39608e-06 0)
(0.00105642 1.85264e-05 0)
(0.000492855 4.09498e-05 3.29329e-23)
(-0.000176737 6.36186e-05 0)
(-0.000954663 8.72852e-05 0)
(-0.00184403 0.000112649 0)
(-0.00284852 0.0001403 0)
(-0.00397208 0.000170677 0)
(-0.00521844 0.000204047 0)
(-0.0065907 0.000240501 0)
(-0.00809085 0.000279954 8.47068e-23)
(-0.00971928 0.000322148 -9.15591e-23)
(-0.0114743 0.000366657 9.82412e-23)
(-0.0133519 0.000412888 1.04635e-22)
(-0.0153453 0.000460092 0)
(-0.0174444 0.000507361 0)
(-0.0196361 0.000553645 -1.20689e-22)
(-0.0219039 0.000597761 -1.24474e-22)
(-0.0242279 0.000638419 0)
(-0.0265847 0.000674247 0)
(-0.028948 0.000703837 -1.28736e-22)
(-0.0312885 0.000725785 0)
(-0.0335745 0.000738751 0)
(-0.0357726 0.000741519 1.18872e-22)
(-0.037848 0.000733053 0)
(-0.0397655 0.000712562 1.02635e-22)
(-0.0414902 0.000679554 1.82738e-22)
(-0.042988 0.00063388 0)
(-0.044227 0.000575742 0)
(-0.0451778 0.000505654 0)
(-0.0458146 0.0004244 0)
(-0.0461157 0.000333222 0)
(-0.0460622 0.000234814 -3.78551e-23)
(-0.0456408 0.000129613 -8.65266e-23)
(-0.0448452 1.96802e-05 -1.37426e-22)
(-0.043673 -9.26039e-05 0)
(-0.0421273 -0.00020508 2.43468e-22)
(-0.0402155 -0.000315735 0)
(-0.0379501 -0.000422706 -3.50596e-22)
(-0.0353473 -0.000524332 -4.0272e-22)
(-0.0324268 -0.000619186 0)
(-0.0292112 -0.000706094 0)
(-0.0257255 -0.000784123 0)
(-0.0219969 -0.000852551 -5.83648e-22)
(-0.018054 -0.00091082 0)
(-0.0139268 -0.000958474 0)
(-0.00964698 -0.000995072 0)
(-0.00524811 -0.00101994 0)
(-0.000765932 -0.0010319 0)
(0.00376268 -0.00102975 0)
(0.00829877 -0.00101323 0)
(0.0127985 -0.000982581 0)
(0.0172151 -0.000937671 6.14482e-22)
(0.0214988 -0.000878205 0)
(0.025597 -0.000804072 0)
(0.0294547 -0.000715513 -4.81381e-22)
(0.0330151 -0.000613248 -4.26245e-22)
(0.0362213 -0.000498567 0)
(0.0390178 -0.0003734 3.05111e-22)
(0.0413524 -0.000240331 -2.41223e-22)
(0.043179 -0.000102554 0)
(0.0444596 3.61817e-05 1.12558e-22)
(0.045167 0.000171493 0)
(0.0452859 0.000298589 0)
(0.0448175 0.000414489 6.50449e-23)
(0.0437802 0.000514812 0)
(0.0422071 0.000596371 -1.60869e-22)
(0.0401479 0.000656924 0)
(0.0376675 0.000695201 2.32053e-22)
(0.0348434 0.000711091 2.57678e-22)
(0.0317626 0.000705684 2.76736e-22)
(0.0285175 0.000681163 5.79125e-22)
(0.0252013 0.000640598 -5.93369e-22)
(0.0219032 0.000587665 0)
(0.0187041 0.000526328 0)
(0.0156729 0.000460503 0)
(0.0128639 0.000393766 -5.65745e-22)
(0.0103151 0.000329114 -5.45727e-22)
(0.00804922 0.00026881 5.23425e-22)
(0.00607409 0.000214321 0)
(0.00438563 0.000166352 -4.76409e-22)
(0.00297042 0.000124985 -4.53351e-22)
(0.00180847 8.98894e-05 -4.31361e-22)
(0.000875465 6.0571e-05 0)
(0.000144166 3.65924e-05 0)
(-0.000414831 1.76967e-05 0)
(-0.000832544 3.7792e-06 -3.59157e-22)
(-0.00114082 -5.2696e-06 0)
(-0.00137108 -9.7322e-06 0)
(-0.00155254 -1.01645e-05 3.25129e-22)
(-0.00171043 -7.39626e-06 0)
(-0.00186453 -2.43666e-06 0)
(-0.00202844 3.67785e-06 3.05946e-22)
(-0.00220972 1.00261e-05 0)
(-0.00241063 1.58929e-05 0)
(-0.00262938 2.07982e-05 -2.94873e-22)
(-0.00286134 2.44777e-05 -2.91848e-22)
(-0.00310029 2.68375e-05 0)
(-0.00333931 2.7904e-05 2.85733e-22)
(-0.00357157 2.77808e-05 0)
(-0.00379072 2.66164e-05 -2.78814e-22)
(-0.00399132 2.4584e-05 0)
(-0.00416893 2.18674e-05 -2.70651e-22)
(-0.00432027 1.86522e-05 -2.66076e-22)
(-0.00444321 1.51185e-05 0)
(-0.00453674 1.14344e-05 0)
(-0.00460088 7.75054e-06 0)
(-0.0046366 4.20794e-06 0)
(-0.00464555 9.53499e-07 0)
(-0.00463005 -2.01798e-06 0)
(-0.00459287 -4.61894e-06 0)
(-0.00453703 -6.80402e-06 -2.22557e-22)
(-0.00446567 -8.56431e-06 2.17056e-22)
(-0.00438192 -9.90999e-06 0)
(-0.00428883 -1.08649e-05 0)
(-0.0041892 -1.14634e-05 0)
(-0.00408561 -1.17467e-05 0)
(-0.00398034 -1.17597e-05 3.84513e-22)
(-0.00387533 -1.15483e-05 0)
(-0.00377221 -1.1157e-05 -3.67734e-22)
(-0.00367231 -1.06276e-05 3.60005e-22)
(-0.00357666 -9.99772e-06 0)
(-0.00348603 -9.30045e-06 0)
(-0.00340095 -8.56407e-06 0)
(-0.00332177 -7.81203e-06 -3.32969e-22)
(-0.00324863 -7.06329e-06 -3.27032e-22)
(-0.00318157 -6.33263e-06 0)
(-0.00312049 -5.63122e-06 -3.15924e-22)
(-0.00306521 -4.96705e-06 -3.10692e-22)
(-0.0030155 -4.34549e-06 3.05637e-22)
(-0.00297105 -3.76972e-06 0)
(-0.00293155 -3.24123e-06 0)
(-0.00289664 -2.76015e-06 2.91279e-22)
(-0.00286598 -2.32559e-06 0)
(-0.0028392 -1.93592e-06 0)
(-0.00281596 -1.58896e-06 0)
(-0.0027959 -1.28215e-06 0)
(-0.00277872 -1.01273e-06 -2.68867e-22)
(-0.00276409 -7.77774e-07 -2.64482e-22)
(-0.00275172 -5.74337e-07 0)
(-0.00274134 -3.99479e-07 -2.55734e-22)
(-0.00273269 -2.50304e-07 0)
(-0.00272555 -1.23995e-07 0)
(-0.0027197 -1.77899e-08 -2.4258e-22)
(-0.00271495 7.10192e-08 0)
(-0.00271115 1.45014e-07 -2.3375e-22)
(-0.00270815 2.06588e-07 0)
(-0.00270584 2.59048e-07 0)
(-0.00270415 3.06457e-07 -2.20378e-22)
(-0.00270305 3.5356e-07 0)
(-0.00270255 4.0563e-07 -2.11368e-22)
(-0.00270272 4.67922e-07 0)
(-0.0027037 5.44108e-07 0)
(-0.00270566 6.32228e-07 0)
(-0.00270877 7.1811e-07 1.93022e-22)
(-0.00271319 8.06416e-07 0)
(-0.00271889 9.54866e-07 -1.83544e-22)
(-0.00272554 1.09331e-06 0)
(-0.00273241 1.13519e-06 0)
(-0.00273817 1.09278e-06 0)
(-0.00274065 9.04359e-07 0)
(-0.00273678 3.64007e-07 0)
(-0.00272235 -5.53702e-07 0)
(-0.0026906 -2.22529e-06 0)
(-0.00263272 -5.84946e-06 2.80419e-22)
(-0.00254974 -6.40344e-06 0)
(-0.00225965 -4.58831e-05 0)
(4.55557e-05 -0.000378045 -2.33311e-23)
(0.000359581 -0.000916431 3.18288e-23)
(0.000829203 -0.00124238 0)
(0.00137639 -0.00137512 -2.1348e-23)
(0.00190867 -0.00134698 0)
(0.00235497 -0.00119313 -6.75836e-24)
(0.00266096 -0.000946275 1.19386e-23)
(0.00278467 -0.000634646 6.9067e-24)
(0.00269425 -0.000281292 0)
(0.00236645 9.60492e-05 -5.64463e-24)
(0.00178485 0.000484755 -9.29133e-24)
(0.00093802 0.000876409 0)
(-0.000181882 0.00126633 0)
(-0.00158061 0.0016528 0)
(-0.00326288 0.00203626 0)
(-0.00523307 0.00241852 -3.51222e-23)
(-0.00749561 0.00280199 0)
(-0.010055 0.00318906 8.2301e-23)
(-0.0129155 0.00358147 0)
(-0.0160806 0.00397994 0)
(-0.0195522 0.00438383 -1.19704e-22)
(-0.0233297 0.00479101 0)
(-0.0274087 0.00519776 1.46253e-22)
(-0.0317806 0.00559892 -8.78149e-23)
(-0.0364313 0.00598792 9.44981e-23)
(-0.0413404 0.00635706 -1.00932e-22)
(-0.0464807 0.00669766 -1.07002e-22)
(-0.0518181 0.00700038 0)
(-0.0573111 0.00725548 0)
(-0.0629109 0.00745312 1.21718e-22)
(-0.0685622 0.00758371 -1.13188e-22)
(-0.0742035 0.00763828 0)
(-0.0797681 0.00760878 0)
(-0.0851854 0.00748845 1.2778e-22)
(-0.0903818 0.00727216 0)
(-0.0952828 0.00695667 0)
(-0.099814 0.00654081 -1.17063e-22)
(-0.103903 0.00602568 0)
(-0.107481 0.00541468 1.0363e-22)
(-0.110483 0.00471353 -1.79423e-22)
(-0.112852 0.00393005 0)
(-0.114538 0.00307392 0)
(-0.115498 0.00215625 -1.97208e-22)
(-0.1157 0.00118964 -1.23749e-22)
(-0.115117 0.000188634 -4.24742e-23)
(-0.113739 -0.000832321 -8.27347e-24)
(-0.111562 -0.00185889 8.58491e-23)
(-0.108592 -0.0028764 3.76546e-22)
(-0.104842 -0.00387118 -3.43745e-22)
(-0.100336 -0.00483082 -2.44164e-22)
(-0.0951032 -0.00574434 0)
(-0.0891786 -0.00660234 3.55118e-22)
(-0.0826035 -0.00739711 -3.68355e-22)
(-0.0754225 -0.00812255 0)
(-0.0676837 -0.00877413 0)
(-0.0594377 -0.0093486 0)
(-0.0507368 -0.00984377 6.11661e-22)
(-0.0416348 -0.0102581 0)
(-0.0321867 -0.0105902 -1.33073e-21)
(-0.0224491 -0.0108387 0)
(-0.012481 -0.0110012 -1.43799e-21)
(-0.00234507 -0.0110743 0)
(0.00789335 -0.0110539 1.44776e-21)
(0.0181661 -0.0109355 0)
(0.0283952 -0.0107149 -1.33836e-21)
(0.0384978 -0.0103873 6.0734e-22)
(0.0483843 -0.00994804 0)
(0.0579582 -0.00939311 1.07226e-21)
(0.0671156 -0.00871999 5.02435e-22)
(0.0757461 -0.00792853 4.42353e-22)
(0.0837348 -0.0070217 0)
(0.0909638 -0.00600632 2.762e-22)
(0.0973154 -0.00489354 2.47115e-22)
(0.102676 -0.00369924 0)
(0.106938 -0.0024442 -1.14776e-22)
(0.110009 -0.00115405 7.54932e-23)
(0.111814 0.00014072 0)
(0.112299 0.0014071 -6.62297e-23)
(0.11144 0.00260981 0)
(0.109252 0.00371459 5.01424e-22)
(0.105784 0.00468936 0)
(0.101123 0.00550569 -7.12226e-22)
(0.0953955 0.00614106 -2.6471e-22)
(0.0887649 0.0065809 2.75831e-22)
(0.0814241 0.00682009 5.72927e-22)
(0.0735878 0.00686359 -5.84274e-22)
(0.0654818 0.00672621 0)
(0.0573301 0.00643136 0)
(0.0493427 0.00600894 0)
(0.0417041 0.00549265 1.78132e-21)
(0.0345647 0.00491696 5.93611e-22)
(0.0280356 0.00431419 -5.73666e-22)
(0.0221874 0.00371229 0)
(0.0170526 0.00313336 -4.89644e-22)
(0.0126309 0.00259342 5.06541e-22)
(0.0088953 0.00210304 4.84442e-22)
(0.00579863 0.00166882 0)
(0.00327852 0.00129483 0)
(0.00126165 0.000983532 0)
(-0.000332776 0.000735959 4.09395e-22)
(-0.00158941 0.000551033 0)
(-0.00259224 0.000424828 -7.52291e-22)
(-0.00341967 0.0003503 -1.10272e-21)
(-0.00413984 0.000317715 7.15619e-22)
(-0.00480703 0.000315749 0)
(-0.00545998 0.000332914 3.42225e-22)
(-0.00612207 0.000358868 0)
(-0.0068032 0.000385291 6.73543e-22)
(-0.00750259 0.000406224 -3.30569e-22)
(-0.00821191 0.000417982 -3.2742e-22)
(-0.00891823 0.00041879 0)
(-0.00960649 0.000408333 -9.72244e-22)
(-0.0102614 0.000387318 6.39656e-22)
(-0.0108687 0.000357112 3.17737e-22)
(-0.0114163 0.000319467 0)
(-0.0118946 0.000276319 3.08613e-22)
(-0.0122967 0.00022964 9.08592e-22)
(-0.0126187 0.000181324 0)
(-0.0128595 0.000133109 5.83735e-22)
(-0.0130203 8.65116e-05 5.72254e-22)
(-0.0131048 4.28014e-05 5.60378e-22)
(-0.0131183 2.9976e-06 0)
(-0.0130674 -3.22921e-05 0)
(-0.0129597 -6.26228e-05 0)
(-0.0128035 -8.78068e-05 -2.56013e-22)
(-0.0126072 -0.000107885 -2.49059e-22)
(-0.012379 -0.000123076 0)
(-0.0121268 -0.000133731 -4.75925e-22)
(-0.011858 -0.000140295 -4.6493e-22)
(-0.0115792 -0.000143269 0)
(-0.0112962 -0.000143181 -4.43096e-22)
(-0.0110142 -0.000140556 -8.69507e-22)
(-0.0107372 -0.000135896 4.24502e-22)
(-0.0104686 -0.000129669 4.18156e-22)
(-0.0102113 -0.000122293 0)
(-0.00996706 -0.000114136 0)
(-0.00973741 -0.000105512 0)
(-0.00952321 -9.66848e-05 3.85992e-22)
(-0.00932491 -8.78662e-05 -3.80934e-22)
(-0.00914262 -7.9225e-05 -7.47635e-22)
(-0.00897613 -7.08899e-05 3.67101e-22)
(-0.008825 -6.29554e-05 -3.62403e-22)
(-0.00868864 -5.54871e-05 -3.55683e-22)
(-0.0085663 -4.85268e-05 0)
(-0.00845717 -4.20967e-05 0)
(-0.00836035 -3.62039e-05 3.40368e-22)
(-0.00827493 -3.08435e-05 0)
(-0.0082 -2.60013e-05 0)
(-0.00813464 -2.16567e-05 -6.49503e-22)
(-0.00807795 -1.77842e-05 0)
(-0.00802908 -1.43552e-05 -3.14931e-22)
(-0.0079872 -1.13388e-05 3.0972e-22)
(-0.00795154 -8.70328e-06 0)
(-0.00792136 -6.41637e-06 -3.00013e-22)
(-0.007896 -4.44589e-06 0)
(-0.00787483 -2.76e-06 0)
(-0.00785728 -1.32711e-06 2.84995e-22)
(-0.00784285 -1.15635e-07 -5.60024e-22)
(-0.00783109 9.06682e-07 2.74971e-22)
(-0.00782161 1.77371e-06 0)
(-0.0078141 2.52354e-06 0)
(-0.00780836 3.1998e-06 -2.59706e-22)
(-0.00780426 3.85236e-06 0)
(-0.00780182 4.53624e-06 -2.49379e-22)
(-0.00780116 5.30671e-06 0)
(-0.00780256 6.20834e-06 0)
(-0.00780634 7.25521e-06 0)
(-0.00781284 8.40328e-06 -2.28357e-22)
(-0.00782217 9.55429e-06 0)
(-0.00783402 1.0568e-05 2.17417e-22)
(-0.00784732 1.10449e-05 0)
(-0.00785974 1.04754e-05 0)
(-0.00786735 8.23894e-06 -3.99981e-22)
(-0.00786422 3.5683e-06 3.87692e-22)
(-0.00784197 -4.62416e-06 0)
(-0.00778925 -1.75377e-05 0)
(-0.00768952 -3.74434e-05 0)
(-0.00752322 -6.84184e-05 -1.00402e-21)
(-0.00728192 -0.000119372 0)
(-0.00670437 -0.000240964 6.11593e-22)
(4.34751e-05 -0.000782918 -6.74859e-24)
(0.000320615 -0.00178703 -5.24276e-23)
(0.000685358 -0.00230638 0)
(0.00104667 -0.00241817 4.96682e-23)
(0.00130514 -0.00219823 0)
(0.00138478 -0.00171746 0)
(0.0012265 -0.00103903 6.47053e-24)
(0.000782924 -0.000217175 -6.92866e-24)
(1.62107e-05 0.000703652 -7.96312e-24)
(-0.00110347 0.00168847 5.64684e-24)
(-0.00259949 0.00271099 0)
(-0.00448994 0.00375289 0)
(-0.00678894 0.0048026 -2.0517e-23)
(-0.00950754 0.00585386 -5.79875e-23)
(-0.0126545 0.0069043 7.59968e-23)
(-0.0162365 0.00795386 0)
(-0.0202582 0.00900331 1.15229e-22)
(-0.0247221 0.0100529 -7.99072e-23)
(-0.0296271 0.0111011 0)
(-0.0349687 0.0121439 1.82097e-22)
(-0.040737 0.0131741 1.14914e-22)
(-0.0469156 0.0141811 -2.31442e-22)
(-0.0534811 0.0151512 -1.39298e-22)
(-0.0604016 0.0160675 0)
(-0.0676363 0.0169107 3.09577e-22)
(-0.0751349 0.0176596 3.35648e-22)
(-0.0828377 0.0182923 0)
(-0.0906762 0.0187863 3.85538e-22)
(-0.0985735 0.0191201 0)
(-0.106445 0.0192735 4.29161e-22)
(-0.114203 0.0192287 2.2111e-22)
(-0.121751 0.0189714 0)
(-0.128995 0.0184906 0)
(-0.135839 0.0177799 0)
(-0.14219 0.0168378 0)
(-0.147956 0.0156675 0)
(-0.153055 0.0142772 0)
(-0.157408 0.0126797 4.44854e-22)
(-0.160948 0.0108927 -6.08421e-22)
(-0.163616 0.0089374 0)
(-0.165363 0.00683846 0)
(-0.166152 0.00462297 0)
(-0.165958 0.00232002 -4.97979e-23)
(-0.164764 -3.93616e-05 1.15838e-22)
(-0.162569 -0.00242338 1.3159e-22)
(-0.159382 -0.00480151 3.31701e-23)
(-0.155219 -0.00714429 7.8618e-23)
(-0.150104 -0.00942501 -2.2548e-22)
(-0.14407 -0.0116195 5.31072e-23)
(-0.137157 -0.0137065 -3.72453e-22)
(-0.129411 -0.0156681 0)
(-0.12088 -0.0174895 -5.81736e-22)
(-0.11162 -0.0191597 5.29885e-23)
(-0.101684 -0.0206704 0)
(-0.0911308 -0.0220164 0)
(-0.0800185 -0.0231947 9.86109e-22)
(-0.0684055 -0.0242039 0)
(-0.0563505 -0.0250435 0)
(-0.0439122 -0.0257132 -1.17522e-21)
(-0.0311498 -0.0262117 -2.58664e-21)
(-0.0181239 -0.0265367 1.40099e-21)
(-0.00489864 -0.0266833 0)
(0.00845908 -0.0266449 -1.42027e-21)
(0.0218834 -0.0264118 0)
(0.0352939 -0.0259725 -1.19117e-21)
(0.0486041 -0.0253149 -1.22294e-21)
(0.06172 -0.0244268 2.15857e-21)
(0.0745385 -0.0232962 9.27437e-22)
(0.0869462 -0.0219134 0)
(0.0988204 -0.0202723 -1.51199e-21)
(0.110029 -0.018372 0)
(0.120433 -0.0162178 -1.58509e-21)
(0.129888 -0.0138234 -7.74042e-22)
(0.138245 -0.0112112 -5.25874e-22)
(0.145358 -0.00841358 2.83358e-22)
(0.151085 -0.00547341 -1.21761e-22)
(0.155295 -0.002444 0)
(0.157874 0.000610032 0)
(0.158725 0.0036134 -5.50866e-22)
(0.157791 0.0064863 -1.02281e-21)
(0.155056 0.0091481 0)
(0.150552 0.01152 4.43358e-22)
(0.144364 0.0135295 0)
(0.136632 0.0151161 -1.60375e-21)
(0.127556 0.0162367 2.10956e-23)
(0.117387 0.0168706 -9.24378e-24)
(0.106418 0.0170223 1.13798e-21)
(0.0949677 0.0167221 0)
(0.0833644 0.0160236 -1.10921e-21)
(0.071923 0.014999 -2.77782e-23)
(0.0609265 0.0137317 0)
(0.0506096 0.0123084 0)
(0.041149 0.0108113 0)
(0.0326591 0.00931202 9.88683e-22)
(0.0251951 0.00786809 0)
(0.0187598 0.00652274 0)
(0.0133127 0.00530667 0)
(0.00877931 0.00424076 0)