/*--------------------------------*- C++ -*----------------------------------*\
  =========                 |
  \\      /  F ield         | OpenFOAM: The Open Source CFD Toolbox
   \\    /   O peration     | Website:  https://openfoam.org
    \\  /    A nd           | Version:  8
     \\/     M anipulation  |
\*---------------------------------------------------------------------------*/
FoamFile
{
    version     2.0;
    format      ascii;
    class       volScalarField;
    location    "0.48";
    object      p;
}
// * * * * * * * * * * * * * * * * * * * * * * * * * * * * * * * * * * * * * //

dimensions      [0 2 -2 0 0 0 0];

internalField   nonuniform List<scalar> 
12225
(
-0.0153289
-0.015286
-0.015234
-0.0151824
-0.0151395
-0.0151087
-0.0150935
-0.015098
-0.0151268
-0.0151859
-0.015282
-0.0154243
-0.0156277
-0.0159206
-0.0163619
-0.0170757
-0.0184241
-0.0219918
-0.0153274
-0.0152887
-0.0152407
-0.0151931
-0.0151538
-0.0151268
-0.0151156
-0.0151242
-0.0151573
-0.0152204
-0.0153203
-0.0154659
-0.0156717
-0.0159641
-0.0163934
-0.0170573
-0.0181564
-0.020524
-0.0153275
-0.0152927
-0.0152493
-0.015206
-0.0151711
-0.0151485
-0.0151418
-0.0151551
-0.0151929
-0.0152604
-0.0153638
-0.0155116
-0.0157168
-0.0160017
-0.016404
-0.0169853
-0.0177927
-0.0192252
-0.0153302
-0.0152978
-0.0152583
-0.0152191
-0.0151883
-0.0151698
-0.0151674
-0.0151849
-0.0152266
-0.0152973
-0.0154026
-0.0155497
-0.0157492
-0.0160172
-0.0163769
-0.0168568
-0.0174278
-0.0182758
-0.0153352
-0.0153042
-0.0152678
-0.0152323
-0.0152053
-0.0151906
-0.0151921
-0.0152134
-0.0152583
-0.015331
-0.0154364
-0.01558
-0.015769
-0.0160126
-0.0163205
-0.016696
-0.0170838
-0.0175599
-0.0153426
-0.0153119
-0.015278
-0.015246
-0.0152224
-0.0152114
-0.0152164
-0.0152409
-0.0152883
-0.0153622
-0.0154661
-0.0156037
-0.0157785
-0.0159932
-0.016246
-0.0165243
-0.0167692
-0.017003
-0.015352
-0.0153209
-0.015289
-0.0152599
-0.0152397
-0.015232
-0.0152402
-0.0152675
-0.0153167
-0.0153908
-0.0154919
-0.0156216
-0.0157799
-0.0159637
-0.0161633
-0.0163573
-0.0164937
-0.0165751
-0.0153633
-0.0153312
-0.0153006
-0.0152742
-0.0152569
-0.0152523
-0.0152634
-0.015293
-0.0153436
-0.015417
-0.0155143
-0.015635
-0.0157758
-0.0159294
-0.0160812
-0.0162067
-0.0162654
-0.0162576
-0.0153762
-0.0153426
-0.0153127
-0.0152886
-0.015274
-0.0152722
-0.0152859
-0.0153175
-0.0153689
-0.0154412
-0.0155343
-0.0156457
-0.0157697
-0.0158959
-0.0160078
-0.0160817
-0.0160892
-0.0160345
-0.0153902
-0.0153548
-0.0153252
-0.0153031
-0.015291
-0.0152917
-0.0153078
-0.015341
-0.015393
-0.0154641
-0.015553
-0.0156558
-0.0157651
-0.0158688
-0.0159502
-0.015989
-0.015967
-0.0158933
-0.0154046
-0.0153674
-0.0153379
-0.0153175
-0.0153076
-0.0153108
-0.0153289
-0.0153638
-0.0154164
-0.0154865
-0.0155719
-0.0156678
-0.0157655
-0.0158528
-0.0159139
-0.0159324
-0.0158981
-0.0158237
-0.0154177
-0.0153789
-0.0153494
-0.0153304
-0.0153225
-0.0153276
-0.0153477
-0.015384
-0.0154374
-0.0155071
-0.0155906
-0.0156822
-0.0157733
-0.0158515
-0.0159029
-0.0159144
-0.0158806
-0.0158161
-0.0154296
-0.0153902
-0.0153607
-0.0153432
-0.0153372
-0.0153444
-0.0153664
-0.0154043
-0.0154588
-0.0155289
-0.0156116
-0.0157013
-0.0157892
-0.0158639
-0.015913
-0.0159266
-0.0159023
-0.0158534
-0.0154412
-0.0154023
-0.0153731
-0.0153573
-0.0153536
-0.0153632
-0.0153874
-0.0154276
-0.0154839
-0.0155555
-0.0156394
-0.01573
-0.015819
-0.0158962
-0.0159512
-0.0159764
-0.0159712
-0.0159457
-0.0154506
-0.0154136
-0.0153857
-0.0153723
-0.0153713
-0.0153837
-0.0154108
-0.0154537
-0.0155129
-0.0155878
-0.0156756
-0.0157713
-0.0158675
-0.0159551
-0.0160255
-0.0160724
-0.0160952
-0.0161005
-0.0154547
-0.0154218
-0.0153973
-0.0153872
-0.0153897
-0.0154054
-0.0154357
-0.0154821
-0.0155455
-0.0156256
-0.0157206
-0.0158261
-0.0159358
-0.016042
-0.0161368
-0.0162144
-0.0162727
-0.0163139
-0.0154485
-0.0154235
-0.0154056
-0.0154005
-0.0154072
-0.0154266
-0.0154604
-0.0155104
-0.0155784
-0.0156649
-0.015769
-0.0158874
-0.0160151
-0.016145
-0.0162697
-0.0163824
-0.0164782
-0.0165554
-0.0154263
-0.0154141
-0.015407
-0.0154091
-0.0154208
-0.0154435
-0.0154795
-0.0155314
-0.0156018
-0.0156924
-0.0158031
-0.0159321
-0.016075
-0.0162256
-0.0163762
-0.0165188
-0.0166452
-0.0167493
-0.0153847
-0.0153905
-0.0153979
-0.0154078
-0.0154228
-0.0154455
-0.0154786
-0.0155252
-0.0155885
-0.0156711
-0.0157741
-0.0158968
-0.0160361
-0.0161865
-0.0163405
-0.0164893
-0.0166225
-0.0167307
-0.0153482
-0.015371
-0.0153911
-0.0154067
-0.0154225
-0.0154414
-0.0154658
-0.0154985
-0.0155423
-0.0155995
-0.0156718
-0.015759
-0.0158593
-0.0159686
-0.0160811
-0.0161891
-0.0162824
-0.0163504
-0.0153352
-0.0153689
-0.0153972
-0.0154169
-0.0154336
-0.0154501
-0.0154684
-0.0154904
-0.0155179
-0.0155527
-0.0155956
-0.0156468
-0.0157047
-0.0157662
-0.0158267
-0.0158801
-0.0159176
-0.0159297
-0.0153417
-0.0153814
-0.0154147
-0.0154378
-0.0154563
-0.0154724
-0.0154873
-0.0155021
-0.0155174
-0.015534
-0.0155519
-0.0155707
-0.0155887
-0.0156034
-0.0156112
-0.0156074
-0.0155852
-0.0155364
-0.0153615
-0.0154033
-0.0154393
-0.0154658
-0.0154873
-0.0155051
-0.0155197
-0.0155313
-0.0155398
-0.0155447
-0.0155451
-0.0155399
-0.0155271
-0.0155042
-0.0154682
-0.0154152
-0.0153404
-0.0152373
-0.0153877
-0.0154291
-0.0154668
-0.015497
-0.0155225
-0.0155437
-0.0155605
-0.0155724
-0.0155786
-0.0155779
-0.0155685
-0.0155485
-0.0155154
-0.0154664
-0.0153987
-0.0153089
-0.0151933
-0.0150474
-0.0154143
-0.0154544
-0.0154938
-0.0155283
-0.0155585
-0.0155842
-0.0156047
-0.0156193
-0.0156268
-0.0156252
-0.0156121
-0.015585
-0.0155409
-0.0154765
-0.0153887
-0.0152744
-0.0151307
-0.0149542
-0.0154374
-0.0154764
-0.0155184
-0.0155577
-0.0155931
-0.0156236
-0.0156487
-0.0156675
-0.0156783
-0.0156791
-0.0156668
-0.0156383
-0.0155901
-0.0155186
-0.0154203
-0.0152919
-0.0151306
-0.0149343
-0.0154548
-0.0154942
-0.0155398
-0.0155845
-0.015625
-0.0156604
-0.0156904
-0.015714
-0.0157296
-0.0157346
-0.015726
-0.0157
-0.0156527
-0.0155799
-0.0154779
-0.015343
-0.0151724
-0.0149644
-0.0154655
-0.0155076
-0.0155585
-0.0156087
-0.0156543
-0.0156945
-0.0157293
-0.015758
-0.015779
-0.0157896
-0.0157865
-0.0157656
-0.0157225
-0.0156526
-0.0155517
-0.0154158
-0.0152418
-0.0150278
-0.0154698
-0.0155171
-0.0155746
-0.0156307
-0.0156811
-0.0157258
-0.0157652
-0.015799
-0.0158257
-0.0158427
-0.0158464
-0.0158322
-0.0157956
-0.0157313
-0.0156349
-0.0155018
-0.0153285
-0.015113
-0.0154694
-0.015523
-0.0155866
-0.0156474
-0.0157016
-0.0157496
-0.0157926
-0.0158306
-0.0158621
-0.0158845
-0.015894
-0.0158861
-0.0158555
-0.0157971
-0.0157056
-0.0155764
-0.0154056
-0.0151909
0.00281829
0.00284218
0.00284168
0.00280088
0.00271963
0.0026
0.00244381
0.00225285
0.00202876
0.00177284
0.00148601
0.00116857
0.000820433
0.000441122
2.99548e-05
-0.000413795
-0.000890672
-0.0014008
-0.00194366
-0.00251782
-0.0031207
-0.00374832
-0.00439504
-0.00505339
-0.00571379
-0.00636453
-0.00699161
-0.00757886
-0.00810808
-0.00855938
-0.00891162
-0.00914306
-0.009232
-0.00915769
-0.00890112
-0.00844598
-0.00777944
-0.00689292
-0.00578271
-0.00445041
-0.00290329
-0.00115464
0.000776898
0.00287322
0.00510044
0.00742762
0.0098197
0.0122389
0.014646
0.0170016
0.0192665
0.0214031
0.0233752
0.0251495
0.0266951
0.0279845
0.0289933
0.0297005
0.0300888
0.0301452
0.0298609
0.0292309
0.0282557
0.0269418
0.0253019
0.0233555
0.0211287
0.018655
0.0159743
0.0131329
0.0101821
0.00717713
0.0041749
0.00123196
-0.00159667
-0.00426085
-0.00671778
-0.00893169
-0.0108762
-0.0125352
-0.013903
-0.0149837
-0.0157903
-0.0163431
-0.0166679
-0.016794
-0.0167523
-0.0165736
-0.0162873
-0.0159201
-0.015496
-0.0150357
-0.0145569
-0.0140746
-0.0136015
-0.0131479
-0.0127223
-0.0123312
-0.0119791
-0.0116682
-0.011399
-0.0111699
-0.010978
-0.010819
-0.010688
-0.0105794
-0.0104878
-0.0104078
-0.0103345
-0.0102635
-0.0101911
-0.0101143
-0.0100308
-0.00993896
-0.00983785
-0.00972714
-0.00960701
-0.00947808
-0.00934135
-0.00919803
-0.0090495
-0.00889726
-0.00874274
-0.00858735
-0.00843248
-0.00827926
-0.0081287
-0.00798165
-0.0078388
-0.00770066
-0.00756758
-0.00743978
-0.00731735
-0.00720027
-0.00708844
-0.00698168
-0.00687975
-0.00678239
-0.00668928
-0.0066001
-0.00651451
-0.00643217
-0.00635275
-0.00627593
-0.00620138
-0.0061288
-0.00605791
-0.00598843
-0.00592011
-0.00585272
-0.00578603
-0.00571985
-0.00565399
-0.00558829
-0.0055226
-0.00545678
-0.0053907
-0.00532426
-0.00525735
-0.00518989
-0.00512178
-0.00505295
-0.00498333
-0.00491284
-0.0048414
-0.0047689
-0.0046952
-0.0046201
-0.00454329
-0.00446431
-0.00438254
-0.00429701
-0.0042067
-0.00411049
-0.00400722
-0.00389623
-0.00377721
-0.00365358
-0.00352997
-0.00336695
0.00285911
0.00288001
0.00287726
0.00283718
0.00276137
0.00265255
0.00251253
0.00234267
0.00214419
0.00191802
0.00166466
0.0013842
0.00107633
0.00074038
0.000375449
-1.94441e-05
-0.000445221
-0.000902563
-0.0013917
-0.00191217
-0.00246264
-0.00304061
-0.00364214
-0.00426161
-0.00489142
-0.00552178
-0.00614053
-0.00673306
-0.00728239
-0.00776933
-0.0081729
-0.00847085
-0.00864039
-0.00865904
-0.00850561
-0.00816116
-0.00761005
-0.00684081
-0.00584708
-0.00462827
-0.0031897
-0.00154115
0.000303131
0.00231461
0.00447015
0.00673641
0.009077
0.0114534
0.0138258
0.0161537
0.0183973
0.0205181
0.0224794
0.0242472
0.0257903
0.0270805
0.0280935
0.0288079
0.029206
0.029274
0.0290028
0.0283876
0.0274297
0.0261362
0.0245199
0.0226006
0.0204052
0.0179674
0.0153282
0.0125344
0.00963808
0.00669464
0.00376132
0.000894837
-0.00185171
-0.00442632
-0.00679141
-0.00891342
-0.0107684
-0.012343
-0.0136345
-0.0146495
-0.0154031
-0.0159168
-0.0162169
-0.0163324
-0.0162931
-0.0161279
-0.0158642
-0.0155263
-0.0151358
-0.0147112
-0.0142684
-0.0138208
-0.0133798
-0.0129551
-0.0125547
-0.0121849
-0.0118502
-0.0115533
-0.0112949
-0.0110742
-0.0108887
-0.0107346
-0.0106075
-0.0105024
-0.0104141
-0.0103375
-0.0102679
-0.0102011
-0.0101333
-0.0100614
-0.00998306
-0.00989661
-0.00980096
-0.00969567
-0.00958082
-0.00945694
-0.00932492
-0.00918594
-0.00904135
-0.00889259
-0.00874113
-0.00858841
-0.00843571
-0.00828428
-0.00813514
-0.00798919
-0.00784715
-0.00770954
-0.00757678
-0.00744911
-0.00732665
-0.00720941
-0.00709732
-0.00699022
-0.0068879
-0.00679009
-0.00669651
-0.00660684
-0.00652075
-0.00643792
-0.00635803
-0.00628073
-0.00620573
-0.00613273
-0.00606143
-0.00599157
-0.0059229
-0.00585517
-0.00578818
-0.00572173
-0.00565562
-0.00558969
-0.00552379
-0.00545778
-0.00539154
-0.00532494
-0.0052579
-0.00519032
-0.00512211
-0.00505319
-0.00498349
-0.00491291
-0.00484139
-0.00476879
-0.00469499
-0.00461976
-0.00454279
-0.00446364
-0.00438165
-0.0042961
-0.004206
-0.00411033
-0.00400828
-0.00389916
-0.003783
-0.00366374
-0.00354511
-0.00338985
0.00307539
0.00307914
0.00305995
0.0030091
0.0029289
0.00282194
0.0026905
0.00253498
0.00235631
0.00215501
0.00193109
0.00168405
0.00141293
0.00111634
0.000792504
0.000439408
5.48882e-05
-0.000363202
-0.000816814
-0.00130748
-0.00183604
-0.00240231
-0.00300468
-0.00363969
-0.00430158
-0.00498183
-0.00566885
-0.00634775
-0.00700036
-0.00760539
-0.00813895
-0.00857525
-0.00888758
-0.00904938
-0.00903551
-0.00882344
-0.00839449
-0.00773495
-0.0068371
-0.00569948
-0.00432583
-0.00272528
-0.000916417
0.00107459
0.00321836
0.00548076
0.00782416
0.0102085
0.0125926
0.0149347
0.0171942
0.0193316
0.02131
0.0230951
0.0246557
0.0259639
0.0269952
0.0277287
0.0281466
0.0282352
0.0279855
0.0273921
0.0264551
0.0251813
0.0235832
0.0216804
0.0194999
0.0170761
0.0144508
0.0116722
0.00879395
0.00587348
0.00296994
0.000142062
-0.00255406
-0.0050708
-0.00736269
-0.00939975
-0.0111607
-0.0126347
-0.0138222
-0.0147338
-0.0153887
-0.0158127
-0.0160354
-0.0160881
-0.0160019
-0.015806
-0.0155264
-0.0151857
-0.0148029
-0.0143939
-0.0139717
-0.0135474
-0.0131306
-0.0127293
-0.0123507
-0.0120005
-0.011683
-0.0114011
-0.0111556
-0.010946
-0.0107701
-0.0106245
-0.0105051
-0.0104071
-0.0103257
-0.0102559
-0.0101931
-0.0101331
-0.010072
-0.0100069
-0.00993519
-0.00985519
-0.00976574
-0.00966631
-0.00955692
-0.00943805
-0.00931059
-0.00917569
-0.00903469
-0.00888905
-0.00874027
-0.00858979
-0.00843897
-0.00828905
-0.00814112
-0.00799609
-0.00785472
-0.00771757
-0.00758509
-0.00745753
-0.00733506
-0.0072177
-0.0071054
-0.00699802
-0.00689536
-0.00679718
-0.0067032
-0.00661311
-0.0065266
-0.00644335
-0.00636302
-0.00628532
-0.00620992
-0.00613652
-0.00606486
-0.00599465
-0.00592565
-0.00585763
-0.00579035
-0.00572363
-0.00565728
-0.00559113
-0.00552503
-0.00545884
-0.00539244
-0.0053257
-0.00525853
-0.00519083
-0.00512252
-0.0050535
-0.00498371
-0.00491306
-0.00484145
-0.00476878
-0.00469489
-0.00461956
-0.00454249
-0.00446325
-0.00438127
-0.00429584
-0.00420613
-0.00411126
-0.00401057
-0.00390363
-0.00379057
-0.00367567
-0.0035628
-0.00341358
0.00346586
0.0034364
0.00338536
0.00331274
0.00321988
0.00310806
0.00297744
0.0028292
0.00266331
0.00247928
0.0022761
0.00205211
0.001805
0.00153178
0.0012288
0.000891844
0.000516234
9.70267e-05
-0.000370734
-0.000891663
-0.00146956
-0.00210683
-0.0028038
-0.00355798
-0.00436337
-0.00520987
-0.00608284
-0.00696308
-0.00782695
-0.00864703
-0.009393
-0.0100328
-0.010534
-0.0108654
-0.0109981
-0.0109072
-0.010573
-0.0099819
-0.00912702
-0.00800752
-0.00662863
-0.00500545
-0.00316118
-0.00112306
0.00107646
0.00340054
0.00580905
0.00825977
0.0107095
0.0131152
0.015435
0.017629
0.0196599
0.0214937
0.0230994
0.0244499
0.0255211
0.0262926
0.0267471
0.0268702
0.0266538
0.0260923
0.0251829
0.0239313
0.0223491
0.0204551
0.0182758
0.0158459
0.0132081
0.0104121
0.00751372
0.00457321
0.00165295
-0.00118497
-0.00388139
-0.00638246
-0.00864098
-0.0106233
-0.0123081
-0.0136853
-0.0147569
-0.0155374
-0.0160511
-0.0163297
-0.0164094
-0.0163279
-0.0161216
-0.0158232
-0.0154608
-0.0150572
-0.01463
-0.0141927
-0.0137554
-0.013326
-0.0129111
-0.0125165
-0.0121474
-0.0118084
-0.011503
-0.0112333
-0.0110002
-0.0108028
-0.0106388
-0.0105048
-0.0103967
-0.0103097
-0.0102388
-0.0101791
-0.010126
-0.010075
-0.0100225
-0.00996517
-0.00990066
-0.0098271
-0.00974336
-0.00964891
-0.00954381
-0.0094286
-0.00930419
-0.00917181
-0.00903288
-0.00888892
-0.00874147
-0.00859204
-0.00844204
-0.00829275
-0.00814529
-0.0080006
-0.00785947
-0.00772247
-0.00759007
-0.00746253
-0.00734003
-0.0072226
-0.00711019
-0.00700267
-0.00689985
-0.00680149
-0.00670731
-0.00661701
-0.00653028
-0.0064468
-0.00636625
-0.00628832
-0.00621269
-0.00613908
-0.0060672
-0.00599679
-0.00592759
-0.00585938
-0.00579193
-0.00572504
-0.00565854
-0.00559224
-0.00552601
-0.0054597
-0.00539318
-0.00532634
-0.00525908
-0.0051913
-0.00512291
-0.00505384
-0.00498399
-0.00491328
-0.00484163
-0.00476891
-0.00469498
-0.00461962
-0.00454255
-0.00446337
-0.00438156
-0.00429647
-0.00420736
-0.0041135
-0.00401431
-0.00390951
-0.00379927
-0.00368772
-0.00357821
-0.00343693
0.00397901
0.00390392
0.00380911
0.00370652
0.00359495
0.00347275
0.003339
0.00319278
0.00303261
0.00285642
0.00266139
0.00244385
0.00219913
0.00192149
0.00160417
0.00123946
0.0008189
0.000333686
-0.000224868
-0.000864609
-0.00159169
-0.00240959
-0.00331806
-0.00431221
-0.00538169
-0.00651029
-0.0076759
-0.00885093
-0.0100032
-0.011097
-0.0120949
-0.012959
-0.0136526
-0.0141419
-0.0143971
-0.0143939
-0.0141138
-0.0135456
-0.0126845
-0.0115329
-0.0101024
-0.0084127
-0.00648814
-0.00435901
-0.00206089
0.000366411
0.00288005
0.00543534
0.00798702
0.0104904
0.0129025
0.0151826
0.0172936
0.0192014
0.020876
0.0222908
0.0234227
0.0242519
0.0247616
0.0249375
0.0247697
0.0242526
0.0233827
0.0221631
0.0206041
0.0187231
0.016546
0.0141072
0.01145
0.00862554
0.00569199
0.00271253
-0.000246791
-0.0031197
-0.00584253
-0.008357
-0.0106115
-0.0125662
-0.0141956
-0.0154881
-0.0164455
-0.0170835
-0.0174302
-0.0175235
-0.0174073
-0.017128
-0.0167308
-0.0162562
-0.0157384
-0.0152037
-0.014671
-0.0141527
-0.0136564
-0.0131866
-0.0127463
-0.0123377
-0.0119632
-0.011625
-0.0113247
-0.0110633
-0.0108408
-0.0106554
-0.0105046
-0.0103842
-0.0102898
-0.0102165
-0.0101589
-0.0101119
-0.0100705
-0.0100304
-0.0099875
-0.00993872
-0.0098815
-0.00981404
-0.00973525
-0.00964471
-0.00954257
-0.0094295
-0.00930656
-0.0091751
-0.00903667
-0.00889289
-0.0087454
-0.0085958
-0.00844555
-0.00829598
-0.00814824
-0.0080033
-0.00786194
-0.00772477
-0.00759221
-0.00746457
-0.00734198
-0.00722449
-0.00711204
-0.00700449
-0.00690165
-0.00680326
-0.00670905
-0.00661872
-0.00653195
-0.00644843
-0.00636782
-0.00628983
-0.00621414
-0.00614046
-0.00606851
-0.00599802
-0.00592874
-0.00586045
-0.00579292
-0.00572596
-0.00565938
-0.00559302
-0.00552672
-0.00546034
-0.00539376
-0.00532686
-0.00525955
-0.00519172
-0.0051233
-0.00505418
-0.0049843
-0.00491357
-0.0048419
-0.00476917
-0.00469524
-0.00461992
-0.00454294
-0.00446393
-0.00438244
-0.00429789
-0.00420963
-0.004117
-0.00401951
-0.00391692
-0.0038094
-0.00370046
-0.00359265
-0.00346157
0.00454912
0.00442089
0.00427544
0.00413866
0.00400556
0.00387
0.00372818
0.00357667
0.0034115
0.00322795
0.00302037
0.0027819
0.00250432
0.00217795
0.00179171
0.0013334
0.000790183
0.000149334
-0.000600789
-0.00146954
-0.00246269
-0.00358105
-0.00481941
-0.00616567
-0.00760056
-0.00909783
-0.0106251
-0.0121448
-0.0136164
-0.0149972
-0.016245
-0.017319
-0.0181814
-0.018799
-0.0191437
-0.0191934
-0.0189325
-0.0183522
-0.0174515
-0.016238
-0.0147266
-0.0129383
-0.0109005
-0.00864683
-0.00621596
-0.00365088
-0.000997486
0.00169672
0.00438395
0.00701746
0.00955267
0.0119481
0.014166
0.0161729
0.0179391
0.0194393
0.0206513
0.0215564
0.0221383
0.022383
0.0222792
0.0218208
0.0210036
0.0198278
0.018302
0.016442
0.0142725
0.0118277
0.00915124
0.00629582
0.00332181
0.000295455
-0.00271345
-0.0056343
-0.00839863
-0.0109432
-0.0132124
-0.0151604
-0.0167549
-0.01798
-0.0188351
-0.0193349
-0.0195086
-0.0193978
-0.0190533
-0.0185307
-0.0178856
-0.0171698
-0.0164272
-0.015692
-0.014988
-0.0143294
-0.0137232
-0.013171
-0.0126718
-0.0122236
-0.0118247
-0.0114735
-0.011169
-0.0109099
-0.0106943
-0.0105193
-0.0103811
-0.0102749
-0.0101953
-0.010137
-0.0100941
-0.010061
-0.0100325
-0.0100038
-0.00997086
-0.00993043
-0.00987993
-0.00981762
-0.00974254
-0.00965441
-0.0095536
-0.00944095
-0.00931774
-0.00918551
-0.00904596
-0.00890088
-0.00875202
-0.00860106
-0.00844954
-0.00829884
-0.00815012
-0.00800437
-0.00786237
-0.00772471
-0.00759181
-0.00746394
-0.00734123
-0.00722369
-0.00711126
-0.00700378
-0.00690103
-0.00680276
-0.00670867
-0.00661847
-0.00653182
-0.00644841
-0.00636791
-0.00629001
-0.0062144
-0.00614079
-0.00606889
-0.00599844
-0.0059292
-0.00586092
-0.00579341
-0.00572645
-0.00565987
-0.0055935
-0.00552718
-0.00546079
-0.00539419
-0.00532728
-0.00525995
-0.00519211
-0.00512367
-0.00505454
-0.00498466
-0.00491392
-0.00484226
-0.00476955
-0.00469567
-0.00462043
-0.00454361
-0.0044649
-0.00438387
-0.00430004
-0.00421284
-0.00412167
-0.00402607
-0.00392579
-0.003821
-0.00371423
-0.00360725
-0.00348743
0.005091
0.00490664
0.00470866
0.00453688
0.004381
0.00422898
0.00407289
0.0039057
0.00371984
0.00350683
0.00325703
0.00295928
0.00260071
0.00216675
0.00164141
0.00100796
0.000249854
-0.000647923
-0.00169734
-0.00290568
-0.00427393
-0.00579562
-0.00745602
-0.00923206
-0.011093
-0.0130014
-0.0149151
-0.0167889
-0.0185762
-0.0202313
-0.0217102
-0.0229726
-0.023982
-0.0247071
-0.0251224
-0.0252079
-0.0249503
-0.0243432
-0.0233895
-0.0220988
-0.0204873
-0.0185784
-0.0164025
-0.0139964
-0.0114022
-0.00866652
-0.00583874
-0.00296992
-0.000111087
0.00268817
0.00538101
0.0079244
0.0102798
0.0124136
0.014297
0.0159054
0.0172181
0.0182176
0.0188886
0.0192175
0.0191925
0.0188059
0.0180532
0.016932
0.0154485
0.0136171
0.0114612
0.00901453
0.00632138
0.00343592
0.000420934
-0.00265415
-0.00571573
-0.00868892
-0.0115006
-0.0140825
-0.0163744
-0.0183254
-0.0198983
-0.0210705
-0.0218371
-0.0222099
-0.0222168
-0.0219005
-0.0213158
-0.0205257
-0.0195963
-0.0185913
-0.0175673
-0.01657
-0.0156321
-0.0147737
-0.0140037
-0.0133227
-0.0127265
-0.0122086
-0.0117621
-0.011381
-0.01106
-0.0107946
-0.0105801
-0.0104116
-0.0102837
-0.0101903
-0.0101249
-0.0100813
-0.0100529
-0.0100335
-0.0100175
-0.00999966
-0.00997584
-0.00994258
-0.00989736
-0.00983854
-0.00976534
-0.0096777
-0.00957625
-0.00946209
-0.00933675
-0.009202
-0.00905974
-0.00891191
-0.00876043
-0.00860704
-0.00845336
-0.00830078
-0.00815051
-0.0080035
-0.00786053
-0.00772217
-0.00758879
-0.00746064
-0.00733781
-0.00722029
-0.00710796
-0.00700066
-0.00689814
-0.00680014
-0.00670633
-0.00661641
-0.00653005
-0.00644691
-0.00636666
-0.00628899
-0.0062136
-0.00614017
-0.00606845
-0.00599815
-0.00592903
-0.00586087
-0.00579345
-0.00572656
-0.00566005
-0.00559372
-0.00552745
-0.00546109
-0.00539452
-0.00532762
-0.00526031
-0.00519248
-0.00512404
-0.00505493
-0.00498506
-0.00491435
-0.00484272
-0.00477006
-0.00469626
-0.00462116
-0.00454458
-0.00446624
-0.0043858
-0.00430284
-0.00421686
-0.00412731
-0.00403374
-0.00393582
-0.00383369
-0.00372875
-0.00362208
-0.00351326
0.00550367
0.0052653
0.00501706
0.00481164
0.00463213
0.00445937
0.0042802
0.00408295
0.00385539
0.00358428
0.00325502
0.00285128
0.00235493
0.00174631
0.00100497
0.000110857
-0.000954103
-0.00220412
-0.00364762
-0.00528544
-0.0071096
-0.00910263
-0.0112378
-0.0134801
-0.0157879
-0.0181148
-0.020412
-0.0226298
-0.0247197
-0.0266356
-0.0283343
-0.0297769
-0.0309286
-0.0317598
-0.0322462
-0.032369
-0.032116
-0.0314825
-0.0304729
-0.0290972
-0.0273733
-0.0253271
-0.0229917
-0.0204072
-0.0176196
-0.0146795
-0.0116408
-0.00855874
-0.00548869
-0.00248405
0.000405083
0.00313325
0.00566043
0.00795243
0.00998077
0.0117221
0.0131572
0.01427
0.0150466
0.0154743
0.0155415
0.0152387
0.0145604
0.013503
0.0120698
0.0102734
0.00813621
0.00569174
0.00298496
7.18254e-05
-0.00298222
-0.00610434
-0.00921702
-0.0122411
-0.0150988
-0.0177173
-0.0200314
-0.0219864
-0.0235404
-0.0246655
-0.0253515
-0.0256065
-0.0254555
-0.0249401
-0.0241165
-0.0230523
-0.0218218
-0.0204998
-0.0191563
-0.0178504
-0.0166272
-0.015516
-0.0145314
-0.0136757
-0.012943
-0.0123229
-0.0118032
-0.0113723
-0.0110201
-0.0107373
-0.0105158
-0.010348
-0.010226
-0.0101421
-0.0100884
-0.0100574
-0.0100417
-0.0100342
-0.0100289
-0.0100201
-0.0100033
-0.00997506
-0.00993288
-0.00987528
-0.00980167
-0.00971231
-0.00960809
-0.00949044
-0.00936116
-0.00922227
-0.00907588
-0.00892411
-0.00876897
-0.00861232
-0.00845581
-0.00830086
-0.00814865
-0.00800013
-0.00785604
-0.00771689
-0.00758303
-0.00745464
-0.00733177
-0.00721437
-0.0071023
-0.00699533
-0.0068932
-0.00679562
-0.00670226
-0.00661279
-0.00652686
-0.00644414
-0.00636428
-0.00628698
-0.00621192
-0.0061388
-0.00606735
-0.00599729
-0.00592839
-0.00586041
-0.00579315
-0.00572641
-0.00566001
-0.00559378
-0.00552759
-0.0054613
-0.00539478
-0.00532794
-0.00526066
-0.00519286
-0.00512446
-0.00505538
-0.00498554
-0.00491487
-0.00484329
-0.00477071
-0.00469703
-0.00462212
-0.00454582
-0.00446793
-0.00438816
-0.00430617
-0.0042215
-0.00413365
-0.00404212
-0.00394649
-0.00384682
-0.00374342
-0.00363667
-0.00353757
0.00567866
0.00539303
0.00510057
0.00486432
0.00465991
0.00446039
0.00424657
0.00400136
0.00370713
0.00334518
0.00289536
0.00233587
0.00164344
0.000794069
-0.000235675
-0.00146681
-0.00291583
-0.00459245
-0.00649771
-0.00862259
-0.0109475
-0.0134428
-0.0160702
-0.0187843
-0.0215356
-0.0242724
-0.0269426
-0.0294954
-0.0318825
-0.0340585
-0.0359813
-0.0376128
-0.0389187
-0.0398697
-0.0404412
-0.0406142
-0.0403763
-0.0397235
-0.0386602
-0.0371965
-0.035352
-0.0331546
-0.0306404
-0.0278529
-0.0248423
-0.0216638
-0.0183763
-0.0150405
-0.0117171
-0.00846436
-0.00533693
-0.00238378
0.00035261
0.00283683
0.00504032
0.00694071
0.00852048
0.00976556
0.0106638
0.0112041
0.0113751
0.0111663
0.0105711
0.00958522
0.00820861
0.00645247
0.00433829
0.00189951
-0.000817843
-0.00375572
-0.00684568
-0.0100112
-0.0131708
-0.0162408
-0.0191391
-0.0217883
-0.024119
-0.0260723
-0.0276018
-0.0286776
-0.0292834
-0.0294238
-0.0291206
-0.0284132
-0.0273571
-0.0260222
-0.024488
-0.0228385
-0.0211554
-0.0195119
-0.0179669
-0.0165619
-0.0153201
-0.0142488
-0.0133424
-0.0125879
-0.0119684
-0.0114667
-0.0110665
-0.0107535
-0.0105151
-0.0103401
-0.0102178
-0.0101383
-0.0100919
-0.0100697
-0.0100632
-0.0100645
-0.0100667
-0.0100638
-0.0100511
-0.010025
-0.00998301
-0.00992395
-0.00984745
-0.00975407
-0.00964505
-0.00952211
-0.00938735
-0.00924302
-0.00909145
-0.00893489
-0.00877545
-0.00861507
-0.0084554
-0.00829787
-0.00814363
-0.00799359
-0.00784843
-0.0077086
-0.0075744
-0.00744594
-0.00732322
-0.00720614
-0.00709451
-0.00698807
-0.00688652
-0.00678955
-0.0066968
-0.00660793
-0.00652259
-0.00644042
-0.00636109
-0.00628426
-0.00620964
-0.00613692
-0.00606582
-0.00599608
-0.00592746
-0.00585973
-0.00579268
-0.00572612
-0.00565988
-0.00559379
-0.00552771
-0.00546151
-0.00539507
-0.00532829
-0.00526106
-0.00519331
-0.00512495
-0.00505591
-0.00498612
-0.00491551
-0.004844
-0.00477152
-0.00469798
-0.00462329
-0.00454732
-0.00446992
-0.00439087
-0.00430987
-0.00422651
-0.00414031
-0.0040507
-0.00395717
-0.00385962
-0.00375751
-0.0036504
-0.00355906
0.00551283
0.00519093
0.00486343
0.00460007
0.00436887
0.00413511
0.00387335
0.00356069
0.00317375
0.0026881
0.00207806
0.00131669
0.000376454
-0.000769485
-0.00214531
-0.0037702
-0.00565592
-0.0078046
-0.0102073
-0.0128437
-0.0156822
-0.0186823
-0.0217963
-0.024972
-0.0281554
-0.0312923
-0.0343301
-0.0372182
-0.0399088
-0.0423569
-0.0445203
-0.0463602
-0.0478415
-0.0489334
-0.04961
-0.0498508
-0.0496422
-0.0489803
-0.0478684
-0.0463169
-0.0443468
-0.0419878
-0.0392787
-0.0362667
-0.0330061
-0.0295572
-0.0259847
-0.0223556
-0.0187366
-0.0151925
-0.0117836
-0.00856358
-0.00557864
-0.0028664
-0.000456067
0.00163064
0.00337799
0.00477427
0.00580975
0.00647514
0.00676047
0.00665514
0.00615048
0.00524164
0.00392686
0.00221524
0.000127639
-0.00230225
-0.00502702
-0.0079862
-0.0111081
-0.0143122
-0.0175129
-0.0206221
-0.0235533
-0.026225
-0.0285636
-0.0305062
-0.0320032
-0.033022
-0.0335425
-0.0335659
-0.0331115
-0.0322163
-0.0309344
-0.029336
-0.0275039
-0.0255281
-0.0235004
-0.0215063
-0.0196188
-0.0178928
-0.0163626
-0.0150427
-0.0139308
-0.013013
-0.0122686
-0.0116748
-0.0112094
-0.0108522
-0.0105856
-0.0103941
-0.0102638
-0.010182
-0.0101371
-0.0101185
-0.0101164
-0.0101219
-0.0101274
-0.0101265
-0.0101142
-0.0100868
-0.010042
-0.00997875
-0.00989696
-0.00979751
-0.00968195
-0.00955234
-0.009411
-0.00926043
-0.00910309
-0.00894138
-0.00877747
-0.00861331
-0.00845055
-0.0082906
-0.00813455
-0.00798325
-0.0078373
-0.0076971
-0.00756285
-0.00743462
-0.00731234
-0.00719585
-0.0070849
-0.00697922
-0.00687847
-0.0067823
-0.00669034
-0.00660224
-0.00651762
-0.00643612
-0.00635742
-0.00628117
-0.00620707
-0.00613482
-0.00606414
-0.00599478
-0.00592648
-0.00585904
-0.00579223
-0.00572588
-0.00565982
-0.00559388
-0.00552792
-0.00546182
-0.00539547
-0.00532875
-0.00526159
-0.00519389
-0.00512558
-0.00505658
-0.00498684
-0.00491629
-0.00484486
-0.00477249
-0.00469912
-0.00462466
-0.00454904
-0.00447214
-0.00439379
-0.00431372
-0.00423159
-0.00414687
-0.00405895
-0.00396719
-0.00387135
-0.00377031
-0.00366267
-0.00357683
0.00492354
0.00457966
0.00422874
0.0039427
0.00368265
0.00340692
0.0030841
0.00268559
0.00218238
0.00154459
0.000741497
-0.000258074
-0.00148454
-0.00296565
-0.00472404
-0.00677457
-0.00912193
-0.011759
-0.014666
-0.0178116
-0.0211542
-0.0246447
-0.0282293
-0.0318519
-0.0354566
-0.0389888
-0.0423959
-0.0456275
-0.0486354
-0.0513737
-0.0537989
-0.05587
-0.0575496
-0.0588046
-0.0596067
-0.0599333
-0.059769
-0.0591095
-0.0579565
-0.0563208
-0.054224
-0.0516976
-0.0487829
-0.0455303
-0.0419984
-0.0382529
-0.0343644
-0.0304067
-0.0264537
-0.0225776
-0.0188455
-0.0153176
-0.0120449
-0.00906851
-0.00641922
-0.00411857
-0.00218064
-0.000614505
0.000573087
0.00137544
0.00178442
0.00179014
0.0013827
0.000556084
-0.000692414
-0.00235568
-0.00441325
-0.00683084
-0.00955934
-0.0125356
-0.0156843
-0.0189212
-0.0221562
-0.025297
-0.0282529
-0.0309382
-0.0332754
-0.0351982
-0.0366536
-0.0376063
-0.0380348
-0.0379364
-0.037329
-0.0362476
-0.0347453
-0.0328918
-0.0307712
-0.0284779
-0.0261108
-0.0237661
-0.0215294
-0.019469
-0.0176314
-0.0160404
-0.0146988
-0.0135938
-0.0127025
-0.0119973
-0.01145
-0.0110346
-0.010728
-0.0105098
-0.0103627
-0.0102709
-0.0102206
-0.0101993
-0.0101959
-0.0102004
-0.0102044
-0.0102012
-0.0101854
-0.0101533
-0.0101027
-0.0100327
-0.00994353
-0.00983642
-0.00971315
-0.00957604
-0.00942763
-0.00927059
-0.00910748
-0.00894081
-0.00877273
-0.00860519
-0.00843983
-0.00827796
-0.00812062
-0.00796857
-0.00782235
-0.00768225
-0.00754841
-0.00742082
-0.00729935
-0.00718378
-0.00707384
-0.00696918
-0.00686946
-0.00677429
-0.0066833
-0.00659611
-0.00651234
-0.00643164
-0.00635365
-0.00627806
-0.00620454
-0.00613281
-0.00606259
-0.00599363
-0.00592569
-0.00585854
-0.00579199
-0.00572586
-0.00565997
-0.00559418
-0.00552835
-0.00546235
-0.00539607
-0.00532942
-0.0052623
-0.00519464
-0.00512637
-0.00505742
-0.00498772
-0.00491723
-0.00484588
-0.00477362
-0.00470041
-0.00462619
-0.00455091
-0.00447447
-0.00439675
-0.00431752
-0.00423642
-0.00415293
-0.00406638
-0.00397601
-0.00388141
-0.00378127
-0.00367303
-0.00359043
0.00386233
0.00351291
0.00315187
0.0028484
0.00255813
0.00223397
0.0018393
0.00134039
0.000703156
-0.000107047
-0.0011251
-0.00238518
-0.00391905
-0.0057536
-0.00790806
-0.0103914
-0.0132001
-0.0163175
-0.019714
-0.023349
-0.0271731
-0.0311316
-0.0351673
-0.0392223
-0.0432403
-0.0471663
-0.0509476
-0.0545329
-0.0578727
-0.0609188
-0.0636248
-0.065947
-0.0678446
-0.0692816
-0.070227
-0.0706557
-0.0705499
-0.069905
-0.0687205
-0.0670074
-0.0647876
-0.062094
-0.0589697
-0.0554682
-0.0516522
-0.0475924
-0.0433654
-0.0390519
-0.0347338
-0.0304913
-0.0263997
-0.0225267
-0.0189298
-0.0156549
-0.0127357
-0.0101943
-0.00804353
-0.00628962
-0.0049359
-0.00398573
-0.00344469
-0.00332128
-0.00362584
-0.00436576
-0.00554382
-0.00715488
-0.00917865
-0.0115799
-0.0143075
-0.0172954
-0.0204649
-0.0237277
-0.0269895
-0.030154
-0.0331265
-0.0358173
-0.0381451
-0.0400403
-0.0414468
-0.0423259
-0.0426571
-0.042433
-0.0416706
-0.0404045
-0.0386868
-0.0365868
-0.0341894
-0.0315917
-0.0288977
-0.0262119
-0.0236307
-0.0212348
-0.0190829