/*--------------------------------*- C++ -*----------------------------------*\
  =========                 |
  \\      /  F ield         | OpenFOAM: The Open Source CFD Toolbox
   \\    /   O peration     | Website:  https://openfoam.org
    \\  /    A nd           | Version:  8
     \\/     M anipulation  |
\*---------------------------------------------------------------------------*/
FoamFile
{
    version     2.0;
    format      ascii;
    class       surfaceScalarField;
    location    "0.48";
    object      phi;
}
// * * * * * * * * * * * * * * * * * * * * * * * * * * * * * * * * * * * * * //

dimensions      [0 3 -1 0 0 0 0];

internalField   nonuniform List<scalar> 
24170
(
-6.10561e-12
6.10561e-12
-8.5925e-13
-5.24637e-12
1.59102e-11
-1.67694e-11
4.22408e-11
-2.63306e-11
7.66784e-11
-3.44376e-11
1.18741e-10
-4.20629e-11
1.68425e-10
-4.96838e-11
2.25762e-10
-5.73371e-11
2.9055e-10
-6.47877e-11
3.62351e-10
-7.18008e-11
4.40788e-10
-7.84375e-11
5.26138e-10
-8.53498e-11
6.20128e-10
-9.39903e-11
7.26399e-10
-1.0627e-10
8.4729e-10
-1.20891e-10
9.56854e-10
-1.09565e-10
9.43129e-10
1.37257e-11
1.97091e-09
-1.02778e-09
-1.17512e-11
1.78568e-11
8.59706e-12
-2.55946e-11
6.41227e-11
-7.22951e-11
1.49069e-10
-1.11277e-10
2.59383e-10
-1.44751e-10
3.93452e-10
-1.76132e-10
5.5098e-10
-2.07211e-10
7.3164e-10
-2.37997e-10
9.3425e-10
-2.67398e-10
1.15665e-09
-2.94198e-10
1.39626e-09
-3.18049e-10
1.65111e-09
-3.40198e-10
1.92034e-09
-3.63229e-10
2.20142e-09
-3.8735e-10
2.47352e-09
-3.92992e-10
2.63354e-09
-2.6958e-10
2.21199e-09
4.35274e-10
4.39803e-09
-2.15128e-10
-1.13103e-11
2.91671e-11
3.12457e-11
-6.81507e-11
1.34026e-10
-1.75075e-10
2.87882e-10
-2.65134e-10
4.86207e-10
-3.43076e-10
7.26053e-10
-4.15978e-10
1.00646e-09
-4.8762e-10
1.3262e-09
-5.57732e-10
1.68228e-09
-6.23484e-10
2.06957e-09
-6.8149e-10
2.48121e-09
-7.2968e-10
2.90915e-09
-7.68143e-10
3.34277e-09
-7.96845e-10
3.75975e-09
-8.0433e-10
4.09438e-09
-7.2762e-10
4.14607e-09
-3.2127e-10
3.31714e-09
1.2642e-09
6.8905e-09
8.24666e-10
-4.4836e-12
3.36507e-11
6.8881e-11
-1.41515e-10
2.2858e-10
-3.34774e-10
4.62469e-10
-4.99022e-10
7.61387e-10
-6.41994e-10
1.12084e-09
-7.75435e-10
1.53876e-09
-9.05539e-10
2.01232e-09
-1.03129e-09
2.53574e-09
-1.1469e-09
3.09934e-09
-1.24509e-09
3.68944e-09
-1.31977e-09
4.28771e-09
-1.36641e-09
4.86686e-09
-1.37599e-09
5.37544e-09
-1.31291e-09
5.6977e-09
-1.04988e-09
5.57027e-09
-1.93842e-10
4.46841e-09
2.36607e-09
9.27356e-09
2.08534e-09
9.00657e-12
2.46441e-11
1.23049e-10
-2.55558e-10
3.50331e-10
-5.62056e-10
6.75909e-10
-8.24601e-10
1.08804e-09
-1.05413e-09
1.58043e-09
-1.26783e-09
2.14937e-09
-1.47447e-09
2.78964e-09
-1.67157e-09
3.49156e-09
-1.84882e-09
4.2392e-09
-1.99273e-09
5.00947e-09
-2.09004e-09
5.76996e-09
-2.1269e-09
6.47196e-09
-2.07799e-09
7.03228e-09
-1.87323e-09
7.29607e-09
-1.31368e-09
6.9879e-09
1.14332e-10
5.73476e-09
3.61921e-09
1.14442e-08
3.56411e-09
2.94011e-11
-4.75696e-12
1.94758e-10
-4.20914e-10
5.00943e-10
-8.68241e-10
9.29974e-10
-1.25363e-09
1.46739e-09
-1.59155e-09
2.10478e-09
-1.90521e-09
2.83621e-09
-2.2059e-09
3.65328e-09
-2.48864e-09
4.54122e-09
-2.73676e-09
5.47628e-09
-2.9278e-09
6.42381e-09
-3.03757e-09
7.33473e-09
-3.03783e-09
8.13743e-09
-2.88069e-09
8.72095e-09
-2.45675e-09
8.91061e-09
-1.50334e-09
8.46087e-09
5.64074e-10
7.16415e-09
4.91593e-09
1.33413e-08
5.26709e-09
5.66124e-11
-6.13694e-11
2.84266e-10
-6.48568e-10
6.80833e-10
-1.26481e-09
1.22459e-09
-1.79739e-09
1.89808e-09
-2.26503e-09
2.69038e-09
-2.69751e-09
3.59277e-09
-3.10828e-09
4.59288e-09
-3.48876e-09
5.66989e-09
-3.81377e-09
6.79107e-09
-4.04898e-09
7.90891e-09
-4.1554e-09
8.95707e-09
-4.08599e-09
9.84302e-09
-3.76665e-09
1.04369e-08
-3.05062e-09
1.05647e-08
-1.63114e-09
1.00371e-08
1.09168e-09
8.79355e-09
6.15947e-09
1.4927e-08
7.20781e-09
9.01816e-11
-1.51551e-10
3.90843e-10
-9.49229e-10
8.88713e-10
-1.76268e-09
1.55719e-09
-2.46587e-09
2.37532e-09
-3.08316e-09
3.32926e-09
-3.65146e-09
4.40698e-09
-4.186e-09
5.59157e-09
-4.67334e-09
6.85556e-09
-5.07776e-09
8.15676e-09
-5.35018e-09
9.43491e-09
-5.43356e-09
1.0608e-08
-5.25909e-09
1.15677e-08
-4.72633e-09
1.21764e-08
-3.65933e-09
1.2278e-08
-1.73278e-09
1.17502e-08
1.61954e-09
1.06468e-08
7.26284e-09
1.61745e-08
9.39929e-09
1.2926e-10
-2.80811e-10
5.12536e-10
-1.33251e-09
1.12113e-09
-2.37127e-09
1.922e-09
-3.26674e-09
2.89003e-09
-4.05119e-09
4.00801e-09
-4.76944e-09
5.26022e-09
-5.43821e-09
6.62495e-09
-6.03807e-09
8.06813e-09
-6.52093e-09
9.53864e-09
-6.8207e-09
1.09651e-08
-6.86005e-09
1.22536e-08
-6.54758e-09
1.32871e-08
-5.75984e-09
1.39316e-08
-4.30382e-09
1.40603e-08
-1.86144e-09
1.36159e-08
2.06394e-09
1.27312e-08
8.14753e-09
1.70588e-08
1.18469e-08
1.72537e-10
-4.53347e-10
6.45952e-10
-1.80592e-09
1.37199e-09
-3.09731e-09
2.30934e-09
-4.20409e-09
3.42792e-09
-5.16977e-09
4.70673e-09
-6.04825e-09
6.12625e-09
-6.85773e-09
7.6602e-09
-7.57202e-09
9.26867e-09
-8.1294e-09
1.08934e-08
-8.44543e-09
1.24551e-08
-8.42173e-09
1.38532e-08
-7.94569e-09
1.49701e-08
-6.87675e-09
1.56847e-08
-5.0184e-09
1.59046e-08
-2.08137e-09
1.56279e-08
2.34066e-09
1.50336e-08
8.74181e-09
1.75514e-08
1.4541e-08
2.18415e-10
-6.71762e-10
7.86081e-10
-2.37359e-09
1.63211e-09
-3.94334e-09
2.70493e-09
-5.27691e-09
3.96861e-09
-6.43344e-09
5.39808e-09
-7.47773e-09
6.97024e-09
-8.42989e-09
8.65504e-09
-9.25682e-09
1.04085e-08
-9.88283e-09
1.21679e-08
-1.02049e-08
1.38507e-08
-1.01045e-08
1.5356e-08
-9.45098e-09
1.65732e-08
-8.09397e-09
1.74007e-08
-5.84585e-09
1.77804e-08
-2.46109e-09
1.77519e-08
2.36912e-09
1.75144e-08
8.97935e-09
1.76176e-08
1.74482e-08
2.21066e-10
-8.92828e-10
7.7223e-10
-2.92475e-09
1.57698e-09
-4.74809e-09
2.58192e-09
-6.28185e-09
3.75139e-09
-7.60292e-09
5.06111e-09
-8.78745e-09
6.48927e-09
-9.85805e-09
8.00872e-09
-1.07763e-08
9.58101e-09
-1.14551e-08
1.11529e-08
-1.17768e-08
1.26558e-08
-1.16075e-08
1.40095e-08
-1.08046e-08
1.51307e-08
-9.21523e-09
1.59513e-08
-6.66643e-09
1.6446e-08
-2.95572e-09
1.66693e-08
2.1458e-09
1.67896e-08
8.85901e-09
1.73134e-08
1.70938e-08
2.90991e-10
-1.18382e-09
1.00102e-09
-3.63478e-09
2.01724e-09
-5.7643e-09
3.26787e-09
-7.53248e-09
4.70605e-09
-9.0411e-09
6.30056e-09
-1.0382e-08
8.02464e-09
-1.15821e-08
9.84675e-09
-1.25984e-08
1.17239e-08
-1.33322e-08
1.35979e-08
-1.36509e-08
1.53965e-08
-1.3406e-08
1.70375e-08
-1.24456e-08
1.84414e-08
-1.06192e-08
1.95511e-08
-7.77609e-09
2.03598e-08
-3.7644e-09
2.09439e-08
1.56168e-09
2.14867e-08
8.31618e-09
1.65301e-08
2.22701e-08
3.72841e-10
-1.55666e-09
1.26686e-09
-4.5288e-09
2.52159e-09
-7.01903e-09
4.04123e-09
-9.05212e-09
5.76525e-09
-1.07651e-08
7.65457e-09
-1.22713e-08
9.67821e-09
-1.36058e-08
1.18026e-08
-1.47227e-08
1.39841e-08
-1.55138e-08
1.61662e-08
-1.58329e-08
1.82799e-08
-1.55197e-08
2.02511e-08
-1.44169e-08
2.20134e-08
-1.23815e-08
2.35281e-08
-9.29077e-09
2.48094e-08
-5.04572e-09
2.59503e-08
4.20806e-10
2.71354e-08
7.13108e-09
1.5038e-08
2.86275e-08
4.58017e-10
-2.01468e-09
1.5385e-09
-5.60928e-09
3.02664e-09
-8.50718e-09
4.79777e-09
-1.08233e-08
6.77629e-09
-1.27436e-08
8.91592e-09
-1.44109e-08
1.11843e-08
-1.58741e-08
1.35509e-08
-1.70894e-08
1.59797e-08
-1.79426e-08
1.84255e-08
-1.82787e-08
2.08357e-08
-1.79298e-08
2.31568e-08
-1.6738e-08
2.53471e-08
-1.45719e-08
2.73934e-08
-1.1337e-08
2.93306e-08
-6.98293e-09
3.12587e-08
-1.50732e-09
3.33493e-08
5.04045e-09
1.25567e-08
3.58306e-08
5.23474e-10
-2.53815e-09
1.73723e-09
-6.82304e-09
3.3767e-09
-1.01466e-08
5.28982e-09
-1.27364e-08
7.38851e-09
-1.48423e-08
9.62336e-09
-1.66458e-08
1.19667e-08
-1.82175e-08
1.44004e-08
-1.9523e-08
1.69076e-08
-2.04498e-08
1.94695e-08
-2.08406e-08
2.20656e-08
-2.0526e-08
2.46788e-08
-1.93512e-08
2.73039e-08
-1.71969e-08
2.99591e-08
-1.39923e-08
3.26986e-08
-9.72241e-09
3.56208e-08
-4.4295e-09
3.88704e-08
1.79084e-09
8.79929e-09
4.26279e-08
5.19579e-10
-3.05773e-09
1.69625e-09
-7.99971e-09
3.24678e-09
-1.16972e-08
5.00965e-09
-1.44992e-08
6.89632e-09
-1.6729e-08
8.86435e-09
-1.86138e-08
1.09013e-08
-2.02544e-08
1.30135e-08
-2.16352e-08
1.52184e-08
-2.26547e-08
1.75402e-08
-2.31624e-08
2.00079e-08
-2.29936e-08
2.26561e-08
-2.19995e-08
2.55282e-08
-2.0069e-08
2.86806e-08
-1.71446e-08
3.21868e-08
-1.32286e-08
3.61399e-08
-8.38262e-09
4.0651e-08
-2.72027e-09
3.60485e-09
4.58454e-08
3.49848e-10
-3.40758e-09
1.10094e-09
-8.7508e-09
2.03601e-09
-1.26322e-08
3.03355e-09
-1.54968e-08
4.03314e-09
-1.77286e-08
5.0176e-09
-1.95982e-08
6.00335e-09
-2.12402e-08
7.03374e-09
-2.26656e-08
8.1735e-09
-2.37945e-08
9.50365e-09
-2.44925e-08
1.11168e-08
-2.46067e-08
1.31126e-08
-2.39953e-08
1.55946e-08
-2.2551e-08
1.86663e-08
-2.02164e-08
2.24291e-08
-1.69914e-08
2.69787e-08
-1.29322e-08
3.24023e-08
-8.14387e-09
-2.76854e-09
3.87757e-08
-1.46747e-10
-3.26083e-09
-5.4029e-10
-8.35726e-09
-1.16199e-09
-1.20105e-08
-2.00319e-09
-1.46556e-08
-3.0494e-09
-1.66824e-08
-4.26919e-09
-1.83784e-08
-5.60678e-09
-1.99026e-08
-6.97751e-09
-2.12949e-08
-8.26682e-09
-2.25052e-08
-9.33323e-09
-2.34261e-08
-1.00147e-08
-2.39253e-08
-1.01376e-08
-2.38724e-08
-9.52686e-09
-2.31617e-08
-8.0164e-09
-2.17268e-08
-5.45854e-09
-1.95492e-08
-1.73174e-09
-1.6659e-08
3.25482e-09
-1.31304e-08
-9.06929e-09
9.55557e-09
-5.31785e-10
-2.72905e-09
-1.75768e-09
-7.13137e-09
-3.45068e-09
-1.03175e-08
-5.49388e-09
-1.26124e-08
-7.81985e-09
-1.43564e-08
-1.03794e-08
-1.58189e-08
-1.31224e-08
-1.71595e-08
-1.59848e-08
-1.84325e-08
-1.88806e-08
-1.96094e-08
-2.16998e-08
-2.0607e-08
-2.43108e-08
-2.13142e-08
-2.65673e-08
-2.16159e-08
-2.8317e-08
-2.1412e-08
-2.94118e-08
-2.0632e-08
-2.97177e-08
-1.92432e-08
-2.91233e-08
-1.72535e-08
-2.75448e-08
-1.47089e-08
-1.16866e-08
-2.49275e-08
-6.82784e-10
-2.04626e-09
-2.24335e-09
-5.5708e-09
-4.37373e-09
-8.18716e-09
-6.91444e-09
-1.00717e-08
-9.77723e-09
-1.14936e-08
-1.29089e-08
-1.26872e-08
-1.62681e-08
-1.38003e-08
-1.98086e-08
-1.48921e-08
-2.34672e-08
-1.59508e-08
-2.71583e-08
-1.69158e-08
-3.07734e-08
-1.76991e-08
-3.41848e-08
-1.82045e-08
-3.72532e-08
-1.83436e-08
-3.98373e-08
-1.8048e-08
-4.18032e-08
-1.72774e-08
-4.30337e-08
-1.6023e-08
-4.34353e-08
-1.43073e-08
-1.21808e-08
-4.2941e-08
-6.67974e-10
-1.37829e-09
-2.21206e-09
-4.02672e-09
-4.33099e-09
-6.06822e-09
-6.86268e-09
-7.53999e-09
-9.71607e-09
-8.64024e-09
-1.28414e-08
-9.56196e-09
-1.62086e-08
-1.04331e-08
-1.97899e-08
-1.13107e-08
-2.35466e-08
-1.21942e-08
-2.74204e-08
-1.30419e-08
-3.13313e-08
-1.37882e-08
-3.51783e-08
-1.43576e-08
-3.88445e-08
-1.46774e-08
-4.22051e-08
-1.46873e-08
-4.51361e-08
-1.43464e-08
-4.75225e-08
-1.36366e-08
-4.92663e-08
-1.25635e-08
-1.11562e-08
-5.0291e-08
-5.54548e-10
-8.23742e-10
-1.87623e-09
-2.70503e-09
-3.72144e-09
-4.22302e-09
-5.94627e-09
-5.31515e-09
-8.46548e-09
-6.12104e-09
-1.1235e-08
-6.79244e-09
-1.42346e-08
-7.4335e-09
-1.74512e-08
-8.0941e-09
-2.08659e-08
-8.77939e-09
-2.44452e-08
-9.46267e-09
-2.81358e-08
-1.00976e-08
-3.18648e-08
-1.06287e-08
-3.5542e-08
-1.10002e-08
-3.90655e-08
-1.11638e-08
-4.23287e-08
-1.10832e-08
-4.52278e-08
-1.07376e-08
-4.76684e-08
-1.01228e-08
-9.25308e-09
-4.95715e-08
-4.03011e-10
-4.20731e-10
-1.42168e-09
-1.68636e-09
-2.88655e-09
-2.75815e-09
-4.67824e-09
-3.52346e-09
-6.72075e-09
-4.07853e-09
-8.97618e-09
-4.53701e-09
-1.14313e-08
-4.97836e-09
-1.40831e-08
-5.44227e-09
-1.69267e-08
-5.93582e-09
-1.99466e-08
-6.44284e-09
-2.31116e-08
-6.93256e-09
-2.63734e-08
-7.36678e-09
-2.96677e-08
-7.70598e-09
-3.29173e-08
-7.91425e-09
-3.60374e-08
-7.96308e-09
-3.89413e-08
-7.83364e-09
-4.15462e-08
-7.51798e-09
-7.02076e-09
-4.37785e-08
-2.55676e-10
-1.65056e-10
-9.74772e-10
-9.67265e-10
-2.05524e-09
-1.67768e-09
-3.401e-09
-2.1777e-09
-4.94679e-09
-2.53275e-09
-6.66095e-09
-2.82285e-09
-8.53517e-09
-3.10415e-09
-1.05721e-08
-3.40532e-09
-1.27751e-08
-3.73286e-09
-1.51403e-08
-4.07762e-09
-1.76524e-08
-4.4205e-09
-2.02821e-08
-4.73707e-09
-2.29867e-08
-5.00139e-09
-2.57117e-08
-5.18918e-09
-2.83946e-08
-5.28023e-09
-3.09682e-08
-5.26005e-09
-3.33655e-08
-5.12062e-09
-4.86185e-09
-3.55245e-08
-1.35824e-10
-2.92317e-11
-6.02768e-10
-5.00321e-10
-1.34829e-09
-9.32159e-10
-2.29633e-09
-1.22965e-09
-3.3933e-09
-1.43578e-09
-4.614e-09
-1.60215e-09
-5.95348e-09
-1.76467e-09
-7.41696e-09
-1.94183e-09
-9.01143e-09
-2.13839e-09
-1.07395e-08
-2.34958e-09
-1.25954e-08
-2.56452e-09
-1.45635e-08
-2.76898e-09
-1.66174e-08
-2.94752e-09
-1.87212e-08
-3.08536e-09
-2.08317e-08
-3.16974e-09
-2.29008e-08
-3.19097e-09
-2.48785e-08
-3.14295e-09
-3.02387e-09
-2.67164e-08
-5.20352e-11
2.28035e-11
-3.28851e-10
-2.23505e-10
-8.07688e-10
-4.53322e-10
-1.43006e-09
-6.07274e-10
-2.15477e-09
-7.11079e-10
-2.96313e-09
-7.9379e-10
-3.85252e-09
-8.75276e-10
-4.82861e-09
-9.65744e-10
-5.89897e-09
-1.06803e-09
-7.06864e-09
-1.17992e-09
-8.33717e-09
-1.29599e-09
-9.69716e-09
-1.40899e-09
-1.11337e-08
-1.51093e-09
-1.26251e-08
-1.59403e-09
-1.41435e-08
-1.65137e-09
-1.5657e-08
-1.67744e-09
-1.71314e-08
-1.66849e-09
-1.6228e-09
-1.85325e-08
-3.91728e-12
2.67207e-11
-1.49364e-10
-7.8059e-11
-4.28585e-10
-1.74101e-10
-7.9933e-10
-2.36529e-10
-1.23303e-09
-2.77374e-10
-1.71733e-09
-3.09496e-10
-2.25113e-09
-3.41479e-10
-2.83917e-09
-3.77696e-10
-3.48779e-09
-4.19415e-10
-4.20189e-09
-4.6582e-10
-4.98311e-09
-5.14765e-10
-5.82876e-09
-5.63341e-10
-6.73139e-09
-6.08303e-10
-7.67899e-09
-6.46428e-10
-8.65556e-09
-6.74792e-10
-9.64203e-09
-6.90974e-10
-1.06174e-08
-6.93169e-10
-6.80293e-10
-1.15599e-08
1.53895e-11
1.13312e-11
-4.76933e-11
-1.49762e-11
-1.84131e-10
-3.76627e-11
-3.68757e-10
-5.19037e-11
-5.85263e-10
-6.08678e-11
-8.26944e-10
-6.78145e-11
-1.09358e-09
-7.48401e-11
-1.38828e-09
-8.2997e-11
-1.7151e-09
-9.25995e-11
-2.07744e-09
-1.03476e-10
-2.47706e-09
-1.15146e-10
-2.91345e-09
-1.26949e-10
-3.38362e-09
-1.38138e-10
-3.88209e-09
-1.4796e-10
-4.40116e-09
-1.55716e-10
-4.93133e-09
-1.60804e-10
-5.46181e-09
-1.62689e-10
-1.60961e-10
-5.98114e-09
1.13312e-11
-3.64506e-12
-4.13077e-11
-9.32115e-11
-1.54079e-10
-2.21894e-10
-2.96734e-10
-3.79731e-10
-4.7233e-10
-5.75806e-10
-6.90952e-10
-8.17901e-10
-9.56039e-10
-1.104e-09
-1.25972e-09
-1.42052e-09
-1.58321e-09
-1.74417e-09
1.18534e-10
-1.18534e-10
3.99289e-10
-2.80755e-10
7.68338e-10
-3.69049e-10
1.16357e-09
-3.95231e-10
1.53904e-09
-3.75472e-10
1.86169e-09
-3.22654e-10
2.10827e-09
-2.46572e-10
2.26263e-09
-1.5436e-10
2.31344e-09
-5.0816e-11
2.25205e-09
6.1389e-11
2.07152e-09
1.80531e-10
1.76479e-09
3.06732e-10
1.32401e-09
4.4078e-10
7.39868e-10
5.84143e-10
1.22096e-12
7.38647e-10
-9.05027e-10
9.06248e-10
-1.99367e-09
1.08865e-09
-3.28064e-09
1.28697e-09
-4.78233e-09
1.50168e-09
-6.51465e-09
1.73232e-09
-8.49205e-09
1.97739e-09
-1.07263e-08
2.23429e-09
-1.32256e-08
2.49925e-09
-1.5993e-08
2.76738e-09
-1.90257e-08
3.0327e-09
-2.23139e-08
3.2882e-09
-2.58399e-08
3.52604e-09
-2.95776e-08
3.73775e-09
-3.34922e-08
3.91456e-09
-3.75399e-08
4.04767e-09
-4.16686e-08
4.12875e-09
-4.58189e-08
4.15026e-09
-4.99248e-08
4.10592e-09
-5.39158e-08
3.99098e-09
-5.77184e-08
3.8026e-09
-6.12584e-08
3.53998e-09
-6.44629e-08
3.20451e-09
-6.72626e-08
2.79977e-09
-6.9594e-08
2.33134e-09
-7.14007e-08
1.8067e-09
-7.26354e-08
1.23474e-09
-7.32607e-08
6.25226e-10
-7.32616e-08
9.75796e-13
-7.26e-08
-6.6161e-10
-7.12884e-08
-1.31159e-09
-6.93349e-08
-1.95357e-09
-6.67587e-08
-2.57619e-09
-6.35888e-08
-3.16988e-09
-5.98621e-08
-3.72673e-09
-5.56217e-08
-4.24037e-09
-5.09156e-08
-4.70608e-09
-4.5795e-08
-5.12067e-09
-4.03125e-08
-5.48241e-09
-3.45218e-08
-5.7907e-09
-2.8476e-08
-6.04585e-09
-2.22273e-08
-6.24866e-09
-1.58273e-08
-6.40005e-09
-9.32668e-09
-6.5006e-09
-2.77688e-09
-6.5498e-09
3.77074e-09
-6.54761e-09
1.02634e-08
-6.49264e-09
1.66435e-08
-6.38011e-09
2.28502e-08
-6.20671e-09
2.88198e-08
-5.96956e-09
3.44853e-08
-5.6655e-09
3.97773e-08
-5.292e-09
4.46251e-08
-4.84789e-09
4.89591e-08
-4.33392e-09
5.27123e-08
-3.75326e-09
5.58243e-08
-3.11196e-09
5.82434e-08
-2.41907e-09
5.99302e-08
-1.68682e-09
6.0861e-08
-9.30847e-10
6.10252e-08
-1.64134e-10
6.04392e-08
5.85996e-10
5.91372e-08
1.30194e-09
5.71697e-08
1.96751e-09
5.46064e-08
2.56332e-09
5.15326e-08
3.07376e-09
4.80457e-08
3.48693e-09
4.42507e-08
3.79503e-09
4.02557e-08
3.99495e-09
3.61672e-08
4.0885e-09
3.20851e-08
4.08208e-09
2.8099e-08
3.98611e-09
2.4285e-08
3.81405e-09
2.07037e-08
3.58128e-09
1.73998e-08
3.30387e-09
1.44024e-08
2.99741e-09
1.17262e-08
2.67619e-09
9.37362e-09
2.3526e-09
7.33668e-09
2.03694e-09
5.59917e-09
1.7375e-09
4.13831e-09
1.46087e-09
2.92617e-09
1.21214e-09
1.93105e-09
9.95119e-10
1.11877e-09
8.12281e-10
4.54117e-10
6.64648e-10
-9.75306e-11
5.51647e-10
-5.6865e-10
4.7112e-10
-9.88032e-10
4.19381e-10
-1.37956e-09
3.91532e-10
-1.76154e-09
3.81981e-10
-2.14655e-09
3.85009e-10
-2.54181e-09
3.9526e-10
-2.94986e-09
4.08044e-10
-3.3694e-09
4.1954e-10
-3.79629e-09
4.26894e-10
-4.22449e-09
4.28202e-10
-4.64691e-09
4.22417e-10
-5.05613e-09
4.09222e-10
-5.44502e-09
3.88883e-10
-5.80713e-09
3.62111e-10
-6.13705e-09
3.29927e-10
-6.4306e-09
2.93547e-10
-6.68487e-09
2.54274e-10
-6.89829e-09
2.13416e-10
-7.0705e-09
1.7221e-10
-7.20227e-09
1.31773e-10
-7.29533e-09
9.30568e-11
-7.35216e-09
5.6833e-11
-7.37587e-09
2.37036e-11
-7.37003e-09
-5.83459e-12
-7.33801e-09
-3.20226e-11
-7.28391e-09
-5.41012e-11
-7.21135e-09
-7.25612e-11
-7.12388e-09
-8.74646e-11
-7.02484e-09
-9.90433e-11
-6.91725e-09
-1.07587e-10
-6.80384e-09
-1.13417e-10
-6.68697e-09
-1.16868e-10
-6.56869e-09
-1.18274e-10
-6.45074e-09
-1.17959e-10
-6.33451e-09
-1.16224e-10
-6.22117e-09
-1.13347e-10
-6.11159e-09
-1.09578e-10
-6.00645e-09
-1.05137e-10
-5.90624e-09
-1.00214e-10
-5.81126e-09
-9.49726e-11
-5.72171e-09
-8.95509e-11
-5.63765e-09
-8.40628e-11
-5.55905e-09
-7.86014e-11
-5.48581e-09
-7.32414e-11
-5.41777e-09
-6.80415e-11
-5.35472e-09
-6.30469e-11
-5.29643e-09
-5.82913e-11
-5.24263e-09
-5.37986e-11
-5.19304e-09
-4.95846e-11
-5.14739e-09
-4.56584e-11
-5.10536e-09
-4.2023e-11
-5.06669e-09
-3.86769e-11
-5.03107e-09
-3.56147e-11
-4.99824e-09
-3.28278e-11
-4.96794e-09
-3.03048e-11
-4.93991e-09
-2.80324e-11
-4.91391e-09
-2.59958e-11
-4.88973e-09
-2.41787e-11
-4.86717e-09
-2.25639e-11
-4.84603e-09
-2.1133e-11
-4.82617e-09
-1.98663e-11
-4.80743e-09
-1.87413e-11
-4.7897e-09
-1.77296e-11
-4.7729e-09
-1.67923e-11
-4.75703e-09
-1.5872e-11
-4.74215e-09
-1.48847e-11
-4.72844e-09
-1.37109e-11
-4.71624e-09
-1.22005e-11
-4.70604e-09
-1.01971e-11
-4.69844e-09
-7.59975e-12
-4.69396e-09
-4.48434e-12
-4.69291e-09
-1.04364e-12
-4.69453e-09
1.6184e-12
-4.69673e-09
2.20061e-12
-4.69555e-09
-1.1837e-12
-4.68387e-09
-1.16776e-11
-4.65164e-09
-3.22264e-11
-4.58262e-09
-6.90255e-11
-4.45265e-09
-1.29964e-10
-4.22159e-09
-2.31059e-10
-5.38923e-10
-3.68267e-09
1.97667e-10
-3.16201e-10
6.07231e-10
-6.90319e-10
1.0933e-09
-8.55117e-10
1.55467e-09
-8.56601e-10
1.91225e-09
-7.3305e-10
2.10422e-09
-5.14629e-10
2.08228e-09
-2.24631e-10
1.80725e-09
1.20674e-10
1.24633e-09
5.10101e-10
3.70706e-10
9.37014e-10
-8.47237e-10
1.39847e-09
-2.43498e-09
1.89447e-09
-4.4213e-09
2.4271e-09
-6.83695e-09
2.9998e-09
-9.71476e-09
3.61645e-09
-1.3089e-08
4.28046e-09
-1.69941e-08
4.99378e-09
-2.14632e-08
5.75603e-09
-2.65252e-08
6.56373e-09
-3.22027e-08
7.40979e-09
-3.85084e-08
8.28313e-09
-4.54428e-08
9.16866e-09
-5.29909e-08
1.00474e-08
-6.11203e-08
1.08968e-08
-6.9779e-08
1.16914e-08
-7.88948e-08
1.2404e-08
-8.83749e-08
1.30061e-08
-9.81069e-08
1.34698e-08
-1.07961e-07
1.37687e-08
-1.17793e-07
1.38795e-08
-1.27448e-07
1.37835e-08
-1.36764e-07
1.34668e-08
-1.4558e-07
1.29222e-08
-1.53738e-07
1.21486e-08
-1.61087e-07
1.11516e-08
-1.6749e-07
9.94286e-09
-1.72825e-07
8.54001e-09
-1.76991e-07
6.96547e-09
-1.79905e-07
5.24562e-09
-1.81508e-07
3.40964e-09
-1.81762e-07
1.48862e-09
-1.80653e-07
-4.84152e-10
-1.78175e-07
-2.47697e-09
-1.74378e-07
-4.45852e-09
-1.69292e-07
-6.39713e-09
-1.62978e-07
-8.26763e-09
-1.55507e-07
-1.00477e-08
-1.46959e-07
-1.17182e-08
-1.37421e-07
-1.3264e-08
-1.26988e-07
-1.46739e-08
-1.15754e-07
-1.59403e-08
-1.03815e-07
-1.70594e-08
-9.12669e-08
-1.80303e-08
-7.8203e-08
-1.88546e-08
-6.47133e-08
-1.95356e-08
-5.0885e-08
-2.0077e-08
-3.68023e-08
-2.04827e-08
-2.25478e-08
-2.07552e-08
-8.20267e-09
-2.08949e-08
6.14922e-09
-2.08995e-08
2.04177e-08
-2.07612e-08
3.45062e-08
-2.04686e-08
4.8313e-08
-2.00135e-08
6.17279e-08
-1.93845e-08
7.46324e-08
-1.857e-08
8.68998e-08
-1.75594e-08
9.83965e-08
-1.63445e-08
1.08984e-07
-1.49214e-08
1.18522e-07
-1.32917e-08
1.26874e-07
-1.14639e-08
1.3391e-07
-9.45439e-09
1.39511e-07
-7.28797e-09
1.43578e-07
-4.99836e-09
1.46042e-07
-2.62786e-09
1.46844e-07
-2.16229e-10
1.45997e-07
2.14931e-09
1.43527e-07
4.43728e-09
1.39515e-07
6.57551e-09
1.34081e-07
8.50766e-09
1.27386e-07
1.0182e-08
1.19626e-07
1.15556e-08
1.11023e-07
1.25977e-08
1.01819e-07
1.32925e-08
9.22612e-08
1.36397e-08
8.25922e-08
1.36552e-08
7.30369e-08
1.33693e-08
6.37941e-08
1.28241e-08
5.50286e-08
1.20693e-08
4.68674e-08
1.11586e-08
3.93982e-08
1.01454e-08
3.26713e-08
9.07951e-09
2.67029e-08
8.00534e-09
2.14797e-08
6.96068e-09
1.69641e-08
5.97653e-09
1.30988e-08
5.07738e-09
9.81254e-09
4.28139e-09
7.02441e-09
3.60041e-09
4.64917e-09
3.03989e-09
2.60199e-09
2.59882e-09
8.03089e-10
2.27002e-09
-8.18591e-10
2.04106e-09
-2.32251e-09
1.89545e-09
-3.75466e-09
1.81413e-09
-5.14716e-09
1.77751e-09
-6.51931e-09
1.76741e-09
-7.87915e-09
1.76788e-09
-9.22559e-09
1.76598e-09
-1.05507e-08
1.75202e-09
-1.18421e-08
1.71961e-09
-1.3085e-08
1.66525e-09
-1.42637e-08
1.58799e-09
-1.53637e-08
1.48885e-09
-1.6372e-08
1.37038e-09
-1.72782e-08
1.23612e-09
-1.80749e-08
1.09026e-09
-1.87578e-08
9.37202e-10
-1.93257e-08
7.81319e-10
-1.97802e-08
6.26676e-10
-2.01253e-08
4.76876e-10
-2.03672e-08
3.34943e-10
-2.05136e-08
2.03265e-10
-2.05735e-08
8.35899e-11
-2.05564e-08
-2.28738e-11
-2.04726e-08
-1.15865e-10
-2.03317e-08
-1.94952e-10
-2.01436e-08
-2.6068e-10
-1.99174e-08
-3.13701e-10
-1.96615e-08
-3.54917e-10
-1.93837e-08
-3.85399e-10
-1.90908e-08
-4.06307e-10
-1.87888e-08
-4.18834e-10
-1.8483e-08
-4.24161e-10
-1.81775e-08
-4.23416e-10
-1.78761e-08
-4.17657e-10
-1.75816e-08
-4.07851e-10
-1.72963e-08
-3.94865e-10
-1.70219e-08
-3.79465e-10
-1.67598e-08
-3.62318e-10
-1.65108e-08
-3.43996e-10
-1.62754e-08
-3.2498e-10
-1.60538e-08
-3.05675e-10
-1.5846e-08
-2.86409e-10
-1.56518e-08
-2.67452e-10
-1.54708e-08
-2.49015e-10
-1.53026e-08
-2.31264e-10
-1.51465e-08
-2.14324e-10
-1.50021e-08
-1.98284e-10
-1.48684e-08
-1.83207e-10
-1.4745e-08
-1.69129e-10
-1.46309e-08
-1.56067e-10
-1.45256e-08
-1.44021e-10
-1.44282e-08
-1.32975e-10
-1.43381e-08
-1.22902e-10
-1.42547e-08
-1.13767e-10
-1.41772e-08
-1.05526e-10
-1.4105e-08
-9.81294e-11
-1.40377e-08
-9.15213e-11
-1.39746e-08
-8.56437e-11
-1.39153e-08
-8.04339e-11
-1.38594e-08
-7.58237e-11
-1.38064e-08
-7.1735e-11
-1.3756e-08
-6.80687e-11
-1.37081e-08
-6.4691e-11
-1.36626e-08
-6.14067e-11
-1.36196e-08
-5.79327e-11
-1.35794e-08
-5.38805e-11
-1.35428e-08
-4.8774e-11
-1.35109e-08
-4.21473e-11
-1.34847e-08
-3.37652e-11
-1.34652e-08
-2.39942e-11
-1.3452e-08
-1.4253e-11
-1.34426e-08
-7.75048e-12
-1.34308e-08
-9.5928e-12
-1.34049e-08
-2.70918e-11
-1.33468e-08
-6.97747e-11
-1.32297e-08
-1.49327e-10
-1.30165e-08
-2.82246e-10
-1.26554e-08
-4.91095e-10
-1.20618e-08
-8.2458e-10
-1.47894e-09
-1.11218e-08
1.42689e-10
-4.5889e-10
3.80983e-10
-9.28613e-10
5.73296e-10
-1.04743e-09
6.14097e-10
-8.97403e-10
4.20093e-10
-5.39045e-10
-7.88495e-11
-1.56866e-11
-9.39188e-10
6.35708e-10
-2.21492e-09
1.3964e-09
-3.95492e-09
2.25011e-09
-6.2065e-09
3.1886e-09
-9.01673e-09
4.2087e-09
-1.24332e-08
5.31096e-09
-1.65044e-08
6.49827e-09
-2.1279e-08
7.77437e-09
-2.68047e-08
9.14219e-09
-3.31263e-08
1.0602e-08
-4.02822e-08
1.21497e-08
-4.83012e-08
1.37751e-08
-5.71982e-08
1.54607e-08
-6.69698e-08
1.71813e-08
-7.75901e-08
1.89034e-08
-8.90076e-08
2.05862e-08
-1.01143e-07
2.21823e-08
-1.13886e-07
2.36402e-08
-1.271e-07
2.49057e-08
-1.40622e-07
2.59252e-08
-1.54264e-07
2.66482e-08
-1.67824e-07
2.70298e-08
-1.81089e-07
2.70339e-08
-1.93844e-07
2.66345e-08
-2.05877e-07
2.5817e-08
-2.1699e-07
2.45792e-08
-2.26998e-07
2.29306e-08
-2.35742e-07
2.08919e-08
-2.43084e-07
1.84935e-08
-2.48915e-07
1.5774e-08
-2.53153e-07
1.27784e-08
-2.55744e-07
9.5562e-09
-2.56658e-07
6.1599e-09
-2.55892e-07
2.64316e-09
-2.53463e-07
-9.39534e-10
-2.49413e-07
-4.53441e-09
-2.43798e-07
-8.09251e-09
-2.36686e-07
-1.15698e-08
-2.28157e-07
-1.49264e-08
-2.18298e-07
-1.81269e-08
-2.07204e-07
-2.11417e-08
-1.94975e-07
-2.39465e-08
-1.81717e-07
-2.65229e-08
-1.67532e-07
-2.88586e-08
-1.52525e-07
-3.09467e-08
-1.36799e-07
-3.27855e-08
-1.20452e-07
-3.43776e-08
-1.03578e-07
-3.57291e-08
-8.62653e-08
-3.68478e-08
-6.86001e-08
-3.77422e-08
-5.06629e-08
-3.84198e-08
-3.25323e-08
-3.88858e-08
-1.42858e-08
-3.91414e-08
3.99772e-09
-3.9183e-08
2.22347e-08
-3.89981e-08
4.03307e-08
-3.85646e-08
5.81824e-08
-3.78652e-08
7.56761e-08
-3.68782e-08
9.26861e-08
-3.558e-08
1.09075e-07
-3.39481e-08
1.24693e-07
-3.19629e-08
1.39382e-07
-2.96103e-08
1.52975e-07
-2.68844e-08
1.653e-07
-2.37892e-08
1.76186e-07
-2.03407e-08
1.85467e-07
-1.65684e-08
1.92984e-07
-1.2516e-08
1.98599e-07
-8.24198e-09
2.02201e-07
-3.81869e-09
2.0369e-07
6.60727e-10
2.03028e-07
5.0984e-09
2.00223e-07
9.38106e-09
1.95334e-07
1.33966e-08
1.8848e-07
1.70361e-08
1.79837e-07
2.01985e-08
1.69637e-07
2.27978e-08
1.5816e-07
2.47698e-08
1.45722e-07
2.60776e-08
1.32661e-07
2.67155e-08
1.19321e-07
2.67101e-08
1.06027e-07
2.61176e-08
9.3077e-08
2.50193e-08
8.07218e-08
2.35138e-08
6.91587e-08
2.17085e-08
5.85263e-08
1.97119e-08
4.89058e-08
1.76259e-08
4.03246e-08
1.55419e-08
3.27634e-08
1.35377e-08
2.61649e-08
1.1676e-08
2.04421e-08
1.00042e-08
1.54883e-08
8.55415e-09
1.11861e-08
7.34208e-09
7.41595e-09
6.36902e-09
4.06382e-09
5.62215e-09
1.02777e-09
5.07711e-09
-1.77798e-09
4.7012e-09
-4.42047e-09
4.45662e-09
-6.94702e-09
4.30406e-09
-9.38658e-09
4.20697e-09
-1.17524e-08
4.13368e-09
-1.4045e-08
4.0586e-09
-1.62557e-08
3.96277e-09
-1.83699e-08
3.83378e-09
-2.03698e-08
3.66512e-09
-2.22371e-08
3.45526e-09
-2.39548e-08
3.20662e-09
-2.5509e-08
2.92451e-09
-2.6889e-08
2.61618e-09
-2.80887e-08
2.28997e-09
-2.91061e-08
1.95454e-09
-2.99431e-08
1.61834e-09
-3.06055e-08
1.2891e-09
-3.11022e-08
9.73541e-10
-3.14444e-08
6.77193e-10
-3.16455e-08
4.04299e-10
-3.17197e-08
1.57829e-10
-3.16822e-08
-6.04236e-11
-3.15482e-08
-2.49852e-10
-3.13325e-08
-4.10611e-10
-3.10494e-08
-5.43738e-10
-3.07123e-08
-6.5082e-10
-3.03334e-08
-7.33859e-10
-2.99237e-08
-7.9513e-10
-2.94929e-08
-8.3705e-10
-2.90497e-08
-8.62069e-10
-2.86013e-08
-8.72587e-10
-2.81538e-08
-8.70888e-10
-2.77123e-08
-8.59096e-10
-2.7281e-08
-8.39151e-10
-2.68631e-08
-8.1279e-10
-2.6461e-08
-7.81546e-10
-2.60766e-08
-7.46752e-10
-2.5711e-08
-7.09553e-10
-2.53651e-08
-6.70916e-10
-2.50391e-08
-6.31652e-10
-2.47331e-08
-5.92429e-10
-2.44468e-08
-5.5379e-10
-2.41796e-08
-5.16166e-10
-2.3931e-08
-4.79897e-10
-2.37001e-08
-4.45242e-10
-2.3486e-08
-4.12389e-10
-2.32877e-08
-3.81471e-10
-2.31043e-08
-3.52567e-10
-2.29346e-08
-3.25717e-10
-2.27777e-08
-3.00925e-10
-2.26325e-08
-2.78167e-10
-2.2498e-08
-2.57395e-10
-2.23733e-08
-2.38538e-10
-2.22573e-08
-2.21512e-10
-2.21492e-08
-2.06221e-10
-2.20481e-08
-1.92556e-10
-2.19534e-08
-1.80402e-10
-2.18642e-08
-1.69635e-10
-2.17799e-08
-1.6012e-10
-2.16999e-08
-1.51702e-10
-2.16238e-08
-1.44186e-10
-2.15512e-08
-1.37308e-10
-2.14819e-08
-1.30692e-10
-2.1416e-08
-1.238e-10
-2.1354e-08
-1.15906e-10
-2.12966e-08
-1.06155e-10
-2.1245e-08
-9.37642e-11
-2.12003e-08
-7.84808e-11
-2.1163e-08
-6.13207e-11
-2.11317e-08
-4.55418e-11
-2.11017e-08
-3.77125e-11
-2.1063e-08
-4.83548e-11
-2.09978e-08
-9.21994e-11
-2.08799e-08
-1.87745e-10
-2.06721e-08
-3.57092e-10
-2.03268e-08
-6.27604e-10
-1.97813e-08
-1.03656e-09
-1.89633e-08
-1.64257e-09
-2.56784e-09
-1.78744e-08
6.42824e-14
-4.58955e-10
-1.40363e-10
-7.88186e-10
-5.30745e-10
-6.57047e-10
-1.25515e-09
-1.73e-10
-2.38286e-09
5.88666e-10
-3.97437e-09
1.57583e-09
-6.09081e-09
2.75214e-09
-8.78884e-09
4.09443e-09
-1.21275e-08
5.5888e-09
-1.61673e-08
7.22837e-09
-2.09697e-08
9.01107e-09
-2.65963e-08
1.09375e-08
-3.3107e-08
1.3009e-08
-4.05576e-08
1.5225e-08
-4.89959e-08
1.75805e-08
-5.84577e-08
2.00638e-08
-6.89615e-08
2.26535e-08
-8.05035e-08
2.5317e-08
-9.3052e-08
2.80092e-08
-1.06543e-07
3.06728e-08
-1.20879e-07
3.32393e-08
-1.35925e-07
3.56319e-08
-1.51511e-07
3.77687e-08
-1.67438e-07
3.9567e-08
-1.8348e-07
4.0948e-08
-1.99396e-07
4.18412e-08
-2.14937e-07
4.21885e-08
-2.29854e-07
4.19473e-08
-2.43913e-07
4.10929e-08
-2.56897e-07
3.96185e-08
-2.68615e-07
3.75353e-08
-2.78907e-07
3.48708e-08
-2.87643e-07
3.16662e-08
-2.94725e-07
2.79742e-08
-3.00087e-07
2.38555e-08
-3.0369e-07
1.9377e-08
-3.0552e-07
1.46086e-08
-3.05586e-07
9.62177e-09
-3.03914e-07
4.48789e-09
-3.00548e-07
-7.22305e-10
-2.95546e-07
-5.94155e-09
-2.88972e-07
-1.11087e-08
-2.80896e-07
-1.61684e-08
-2.71397e-07
-2.10685e-08
-2.60561e-07
-2.57622e-08
-2.4848e-07
-3.02084e-08
-2.35249e-07
-3.43728e-08
-2.20967e-07
-3.82279e-08
-2.05736e-07
-4.17541e-08
-1.89656e-07
-4.49392e-08
-1.72824e-07
-4.77783e-08
-1.55336e-07
-5.02731e-08
-1.37283e-07
-5.24314e-08
-1.18747e-07
-5.42647e-08
-9.98074e-08
-5.57873e-08
-8.05362e-08
-5.70135e-08
-6.10003e-08
-5.79558e-08
-4.12635e-08
-5.86226e-08
-2.13884e-08
-5.90165e-08
-1.43949e-09
-5.91319e-08
1.8518e-08
-5.89556e-08
3.84091e-08
-5.84557e-08
5.81424e-08
-5.75986e-08
7.76154e-08
-5.63511e-08
9.67117e-08
-5.46763e-08
1.15301e-07
-5.25373e-08
1.33238e-07
-4.99004e-08
1.50367e-07
-4.67388e-08
1.66518e-07
-4.30355e-08
1.81515e-07
-3.87862e-08
1.95176e-07
-3.40016e-08
2.07317e-07
-2.87097e-08
2.17758e-07
-2.2957e-08
2.26325e-07
-1.68093e-08
2.32859e-07
-1.03528e-08
2.37214e-07
-3.69343e-09
2.39271e-07
3.04128e-09
2.38948e-07
9.70342e-09
2.36215e-07
1.61298e-08
2.31097e-07
2.21542e-08
2.23684e-07
2.76112e-08
2.14137e-07
3.23454e-08
2.02685e-07
3.62217e-08
1.89625e-07
3.9137e-08
1.75311e-07
4.10301e-08
1.60133e-07
4.18884e-08
1.44499e-07
4.17514e-08
1.28811e-07
4.07073e-08
1.13439e-07
3.8886e-08
9.87009e-08
3.64463e-08
8.48499e-08
3.35629e-08
7.2064e-08
3.04117e-08
6.04468e-08
2.71591e-08
5.00319e-08
2.39526e-08
4.07925e-08
2.09154e-08
3.26531e-08
1.81435e-08
2.55036e-08
1.57037e-08
1.92125e-08
1.36332e-08
1.36402e-08
1.19413e-08