/*--------------------------------*- C++ -*----------------------------------*\
  =========                 |
  \\      /  F ield         | OpenFOAM: The Open Source CFD Toolbox
   \\    /   O peration     | Website:  https://openfoam.org
    \\  /    A nd           | Version:  8
     \\/     M anipulation  |
\*---------------------------------------------------------------------------*/
FoamFile
{
    version     2.0;
    format      ascii;
    class       volVectorField;
    location    "0.48";
    object      U;
}
// * * * * * * * * * * * * * * * * * * * * * * * * * * * * * * * * * * * * * //

dimensions      [0 1 -1 0 0 0 0];

internalField   nonuniform List<vector> 
12225
(
(-1.43679e-05 2.04551e-06 0)
(-2.06147e-05 -2.70308e-07 0)
(1.54757e-05 -1.62096e-06 0)
(8.391e-05 -2.85368e-06 0)
(0.000179657 -3.94561e-06 0)
(0.000299517 -5.07097e-06 0)
(0.00044317 -6.29595e-06 0)
(0.000610909 -7.64943e-06 0)
(0.000802598 -9.12222e-06 0)
(0.00101717 -1.07184e-05 0)
(0.00125312 -1.25227e-05 0)
(0.00150996 -1.48104e-05 0)
(0.00179078 -1.82437e-05 0)
(0.00210503 -2.41039e-05 0)
(0.00247004 -3.34296e-05 0)
(0.00291051 -3.94886e-05 0)
(0.0034053 -7.88486e-05 0)
(0.00109627 0.00175732 0)
(-3.14104e-05 7.86831e-06 0)
(-3.27778e-05 -7.56031e-06 0)
(8.2403e-05 -2.488e-05 0)
(0.000290294 -4.05481e-05 0)
(0.00057727 -5.52096e-05 0)
(0.000934608 -7.01935e-05 0)
(0.00136074 -8.62923e-05 0)
(0.00185551 -0.000103626 0)
(0.00241712 -0.000121824 0)
(0.00304059 -0.00014044 0)
(0.00371853 -0.00015952 0)
(0.00444382 -0.00018029 0)
(0.00521316 -0.000205674 0)
(0.00602667 -0.000239353 0)
(0.00687374 -0.000276332 0)
(0.00765612 -0.000248012 0)
(0.00802532 0.000194999 0)
(0.00352431 0.00418181 0)
(-3.94863e-05 1.54541e-05 0)
(-1.80881e-05 -2.69987e-05 0)
(0.000186268 -7.71652e-05 0)
(0.000540272 -0.000123108 0)
(0.00102307 -0.000166572 0)
(0.00162104 -0.000210909 0)
(0.00233073 -0.000258179 0)
(0.00315038 -0.000308489 0)
(0.00407498 -0.000360471 0)
(0.00509351 -0.00041229 0)
(0.00618925 -0.000462922 0)
(0.00734195 -0.000513252 0)
(0.00852899 -0.000565551 0)
(0.00971589 -0.000616495 0)
(0.0108175 -0.000624829 0)
(0.0115489 -0.000382322 0)
(0.0112468 0.000960181 0)
(0.00593953 0.00713987 0)
(-4.0489e-05 2.13173e-05 0)
(2.12514e-05 -6.39553e-05 0)
(0.000325189 -0.000165888 0)
(0.000831213 -0.000260201 0)
(0.00151252 -0.000350027 0)
(0.00235113 -0.000441499 0)
(0.00334106 -0.000538366 0)
(0.00447779 -0.000640423 0)
(0.00575146 -0.000744338 0)
(0.00714277 -0.000845381 0)
(0.0086221 -0.000939405 0)
(0.0101498 -0.00102376 0)
(0.011673 -0.00109368 0)
(0.0131059 -0.00112417 0)
(0.0142729 -0.00100583 0)
(0.0147418 -0.000342037 0)
(0.0137365 0.00216393 0)
(0.00842513 0.0102665 0)
(-3.60738e-05 2.08403e-05 0)
(8.23448e-05 -0.000124436 0)
(0.000495777 -0.000297509 0)
(0.00115839 -0.000459078 0)
(0.00203834 -0.000613734 0)
(0.00311374 -0.000770939 0)
(0.00437545 -0.000936304 0)
(0.00581503 -0.00110876 0)
(0.00741628 -0.00128165 0)
(0.00914957 -0.0014452 0)
(0.0109693 -0.00158895 0)
(0.0128118 -0.00170159 0)
(0.0145872 -0.0017623 0)
(0.0161539 -0.00170864 0)
(0.0172585 -0.00134191 0)
(0.0174028 -8.13949e-05 0)
(0.0158816 0.00363058 0)
(0.0110011 0.0131916 0)
(-2.76526e-05 9.54979e-06 0)
(0.000161543 -0.000215194 0)
(0.000692939 -0.000479357 0)
(0.0015146 -0.00072773 0)
(0.00259004 -0.000966359 0)
(0.00389377 -0.0012084 0)
(0.00541292 -0.00146124 0)
(0.00713414 -0.00172211 0)
(0.00903366 -0.0019793 0)
(0.01107 -0.00221523 0)
(0.0131799 -0.00240894 0)
(0.0152733 -0.00253419 0)
(0.0172231 -0.00254467 0)
(0.0188387 -0.00232875 0)
(0.0198191 -0.00159492 0)
(0.0196803 0.000376337 0)
(0.0178937 0.00520837 0)
(0.0136601 0.0157785 0)
(-1.64625e-05 -1.69243e-05 0)
(0.000254505 -0.000343447 0)
(0.000909886 -0.000719351 0)
(0.00189012 -0.0010745 0)
(0.00315388 -0.00141654 0)
(0.00467222 -0.00176256 0)
(0.00642805 -0.00212141 0)
(0.00840243 -0.00248752 0)
(0.0105633 -0.00284206 0)
(0.0128569 -0.00315641 0)
(0.015202 -0.0033945 0)
(0.0174837 -0.00350868 0)
(0.0195429 -0.0034196 0)
(0.0211558 -0.00296186 0)
(0.0220094 -0.00176461 0)
(0.0216913 0.000966533 0)
(0.0198823 0.00677368 0)
(0.0163894 0.0179829 0)
(-3.60051e-06 -6.27748e-05 0)
(0.000356275 -0.000516457 0)
(0.00113816 -0.00102534 0)
(0.00227263 -0.00150718 0)
(0.0037128 -0.0019717 0)
(0.00542619 -0.00244011 0)
(0.00739121 -0.00292226 0)
(0.00958305 -0.00340847 0)
(0.0119614 -0.00387055 0)
(0.0144609 -0.00426549 0)
(0.0169846 -0.00453749 0)
(0.0193972 -0.00461219 0)
(0.0215177 -0.00437299 0)
(0.0231092 -0.0036041 0)
(0.0238782 -0.00188021 0)
(0.0235137 0.00160344 0)
(0.0218872 0.00821735 0)
(0.019165 0.0197751 0)
(9.96223e-06 -0.00013179 0)
(0.000461409 -0.000741059 0)
(0.0013678 -0.00140447 0)
(0.00264739 -0.00203226 0)
(0.00424656 -0.00263721 0)
(0.00612921 -0.00324483 0)
(0.00826914 -0.00386542 0)
(0.0106359 -0.00448392 0)
(0.013182 -0.00506054 0)
(0.0158325 -0.00553476 0)
(0.0184787 -0.00582731 0)
(0.0209728 -0.0058337 0)
(0.0231246 -0.00540005 0)
(0.0247033 -0.00427008 0)
(0.0254578 -0.00199361 0)
(0.0251828 0.00219107 0)
(0.0238968 0.00943995 0)
(0.0219444 0.0211242 0)
(2.33568e-05 -0.000227067 0)
(0.000564131 -0.00102304 0)
(0.00158756 -0.00186248 0)
(0.00299744 -0.00265418 0)
(0.00473215 -0.00341547 0)
(0.00675172 -0.0041766 0)
(0.00902565 -0.00494785 0)
(0.0115188 -0.00570759 0)
(0.0141781 -0.00640261 0)
(0.0169229 -0.00695245 0)
(0.0196385 -0.007252 0)
(0.0221735 -0.00716575 0)
(0.0243421 -0.00650644 0)
(0.0259354 -0.004991 0)
(0.0267561 -0.00217275 0)
(0.0266925 0.00262989 0)
(0.0258598 0.0103502 0)
(0.0246628 0.0219963 0)
(3.58122e-05 -0.000350805 0)
(0.000658503 -0.00136626 0)
(0.00178524 -0.0024027 0)
(0.00330407 -0.0033742 0)
(0.00514422 -0.00430484 0)
(0.00726177 -0.00523032 0)
(0.00962256 -0.00616071 0)
(0.0121882 -0.00706707 0)
(0.014903 -0.00788156 0)
(0.0176849 -0.00850254 0)
(0.0204202 -0.00879844 0)
(0.0229637 -0.00860442 0)
(0.0251453 -0.0077065 0)
(0.0267889 -0.00580963 0)
(0.0277525 -0.00249343 0)
(0.0279976 0.00282339 0)
(0.0276912 0.0108649 0)
(0.0272298 0.0223515 0)
(4.59345e-05 -0.000491445 0)
(0.000732202 -0.00173795 0)
(0.00193479 -0.00297303 0)
(0.00352749 -0.00412129 0)
(0.00543047 -0.0052156 0)
(0.00759637 -0.00629781 0)
(0.00998863 -0.00737803 0)
(0.0125677 -0.0084205 0)
(0.0152787 -0.00934378 0)
(0.0180429 -0.010027 0)
(0.020754 -0.0103153 0)
(0.0232801 -0.0100206 0)
(0.0254738 -0.00891172 0)
(0.0271936 -0.00669459 0)
(0.0283437 -0.0029869 0)
(0.0289324 0.00269563 0)
(0.0291434 0.0109093 0)
(0.0293342 0.0221673 0)
(5.50175e-05 -0.000653386 0)
(0.000790601 -0.0021534 0)
(0.00204685 -0.00359844 0)
(0.00368528 -0.00492914 0)
(0.00561668 -0.00618943 0)
(0.00779063 -0.0074285 0)
(0.0101694 -0.00865718 0)
(0.0127141 -0.00983338 0)
(0.0153735 -0.0108629 0)
(0.0180761 -0.0116069 0)
(0.020728 -0.0118899 0)
(0.0232164 -0.0115045 0)
(0.0254207 -0.0102089 0)
(0.0272348 -0.00771824 0)
(0.0286018 -0.00369408 0)
(0.0295599 0.00225454 0)
(0.030289 0.0105399 0)
(0.0310974 0.0215125 0)
(6.36265e-05 -0.000864415 0)
(0.000832963 -0.00268427 0)
(0.00211545 -0.00438199 0)
(0.00376258 -0.00592581 0)
(0.00567525 -0.00737567 0)
(0.00780047 -0.00879094 0)
(0.0101009 -0.0101847 0)
(0.0125414 -0.0115092 0)
(0.0150782 -0.0126575 0)
(0.017653 -0.0134732 0)
(0.0201916 -0.0137616 0)
(0.0226076 -0.0132992 0)
(0.0248143 -0.0118399 0)
(0.0267436 -0.00911617 0)
(0.0283732 -0.00484196 0)
(0.029759 0.00127855 0)
(0.0310609 0.00952485 0)
(0.0325295 0.0201093 0)
(6.98447e-05 -0.00113031 0)
(0.000841836 -0.0033428 0)
(0.00209916 -0.00533553 0)
(0.00368874 -0.00711852 0)
(0.00550406 -0.00877473 0)
(0.00749126 -0.0103778 0)
(0.00961622 -0.0119461 0)
(0.011851 -0.0134288 0)
(0.0141647 -0.0147087 0)
(0.0165187 -0.0156148 0)
(0.0188654 -0.0159374 0)
(0.0211517 -0.0154428 0)
(0.0233288 -0.0138872 0)
(0.025366 -0.0110272 0)
(0.0272691 -0.00663081 0)
(0.0290992 -0.000489805 0)
(0.0309851 0.00756219 0)
(0.0331192 0.0176274 0)
(7.07974e-05 -0.00144794 0)
(0.000791477 -0.0041176 0)
(0.00193719 -0.00643673 0)
(0.00336062 -0.00847077 0)
(0.00495546 -0.0103346 0)
(0.00667085 -0.0121218 0)
(0.00847973 -0.0138611 0)
(0.0103658 -0.0155039 0)
(0.0123164 -0.0169286 0)
(0.0143177 -0.0179564 0)
(0.016354 -0.0183697 0)
(0.0184094 -0.0179323 0)
(0.0204736 -0.0164089 0)
(0.0225495 -0.0135822 0)
(0.0246636 -0.00926848 0)
(0.0268743 -0.00333012 0)
(0.0292759 0.00431409 0)
(0.0320088 0.0136839 0)
(6.2464e-05 -0.00179251 0)
(0.000645429 -0.00494397 0)
(0.00154468 -0.00758769 0)
(0.00263573 -0.00985384 0)
(0.00382729 -0.0118976 0)
(0.00507858 -0.0138392 0)
(0.00637427 -0.015725 0)
(0.00771371 -0.0175165 0)
(0.00910537 -0.0190978 0)
(0.0105632 -0.0202922 0)
(0.0121047 -0.0208847 0)
(0.0137506 -0.0206446 0)
(0.0155259 -0.0193495 0)
(0.0174625 -0.0168052 0)
(0.0196016 -0.0128633 0)
(0.0219971 -0.0074328 0)
(0.0247157 -0.000485565 0)
(0.0278519 0.00794584 0)
(3.90183e-05 -0.0020937 0)
(0.000355755 -0.00564892 0)
(0.000814711 -0.00854077 0)
(0.00133939 -0.0109613 0)
(0.00187576 -0.0131083 0)
(0.00240326 -0.0151328 0)
(0.00292252 -0.0171061 0)
(0.00344988 -0.0190105 0)
(0.00401442 -0.0207476 0)
(0.00465544 -0.0221564 0)
(0.00541981 -0.0230362 0)
(0.00635953 -0.0231711 0)
(0.00752948 -0.0223535 0)
(0.00898534 -0.0204069 0)
(0.0107816 -0.0172021 0)
(0.012971 -0.0126686 0)
(0.0156057 -0.00679802 0)
(0.018753 0.00035958 0)
(-8.90255e-06 -0.00219583 0)
(-0.000122614 -0.00586142 0)
(-0.00034008 -0.00877761 0)
(-0.000658527 -0.0111675 0)
(-0.00107037 -0.0132557 0)
(-0.00156665 -0.015219 0)
(-0.00212982 -0.0171554 0)
(-0.00273021 -0.019076 0)
(-0.00332466 -0.020913 0)
(-0.00385702 -0.0225358 0)
(-0.00426026 -0.0237723 0)
(-0.00445991 -0.0244316 0)
(-0.00437843 -0.0243266 0)
(-0.0039401 -0.0232945 0)
(-0.00307589 -0.0212134 0)
(-0.00172631 -0.0180127 0)
(0.000159741 -0.0136778 0)
(0.00263853 -0.00824611 0)
(-5.91997e-05 -0.00193554 0)
(-0.000601744 -0.00520844 0)
(-0.00147557 -0.00781129 0)
(-0.0025983 -0.00992658 0)
(-0.00390487 -0.011761 0)
(-0.00536295 -0.0134902 0)
(-0.00694656 -0.015224 0)
(-0.00862386 -0.0169962 0)
(-0.0103513 -0.0187695 0)
(-0.0120707 -0.0204483 0)
(-0.0137096 -0.0218959 0)
(-0.015184 -0.0229529 0)
(-0.0164034 -0.0234566 0)
(-0.0172765 -0.0232594 0)
(-0.0177186 -0.0222431 0)
(-0.017656 -0.0203301 0)
(-0.0170246 -0.0174889 0)
(-0.0157627 -0.0137346 0)
(-8.51731e-05 -0.0015302 0)
(-0.000886311 -0.00423556 0)
(-0.0021604 -0.00642225 0)
(-0.00377517 -0.00819603 0)
(-0.00563157 -0.00972527 0)
(-0.00768493 -0.0111688 0)
(-0.00990761 -0.0126349 0)
(-0.0122726 -0.014169 0)
(-0.0147441 -0.0157555 0)
(-0.0172722 -0.0173284 0)
(-0.0197904 -0.0187833 0)
(-0.022217 -0.0199926 0)
(-0.024459 -0.0208206 0)
(-0.0264188 -0.0211384 0)
(-0.0280011 -0.0208373 0)
(-0.0291195 -0.0198379 0)
(-0.0296959 -0.0180972 0)
(-0.0296593 -0.0156114 0)
(-9.06779e-05 -0.0010856 0)
(-0.000997108 -0.0031705 0)
(-0.00245286 -0.00490667 0)
(-0.00430093 -0.00631522 0)
(-0.00642601 -0.00752075 0)
(-0.00877725 -0.00865785 0)
(-0.0113283 -0.00982499 0)
(-0.0140597 -0.0110708 0)
(-0.0169475 -0.0123949 0)
(-0.0199551 -0.0137552 0)
(-0.0230286 -0.0150767 0)
(-0.0260962 -0.0162628 0)
(-0.0290713 -0.0172064 0)
(-0.0318572 -0.0178015 0)
(-0.0343548 -0.0179541 0)
(-0.0364696 -0.0175895 0)
(-0.0381129 -0.0166594 0)
(-0.039204 -0.0151471 0)
(-7.82014e-05 -0.000688127 0)
(-0.000955521 -0.00220102 0)
(-0.00240427 -0.0035121 0)
(-0.00426344 -0.00457421 0)
(-0.00641416 -0.00547375 0)
(-0.0088026 -0.00631912 0)
(-0.0114044 -0.00719385 0)
(-0.0142079 -0.00814359 0)
(-0.0172014 -0.00917632 0)
(-0.0203628 -0.0102674 0)
(-0.0236538 -0.0113663 0)
(-0.0270175 -0.0124041 0)
(-0.0303793 -0.0133013 0)
(-0.0336513 -0.0139765 0)
(-0.036738 -0.0143537 0)
(-0.0395436 -0.0143692 0)
(-0.0419752 -0.0139761 0)
(-0.0439462 -0.0131512 0)
(-5.33896e-05 -0.000380387 0)
(-0.00080733 -0.00141885 0)
(-0.00211568 -0.00236068 0)
(-0.00382618 -0.00311915 0)
(-0.00582367 -0.00375234 0)
(-0.00805299 -0.00434362 0)
(-0.0104918 -0.00495929 0)
(-0.013135 -0.00563787 0)
(-0.0159813 -0.00639031 0)
(-0.0190219 -0.00720367 0)
(-0.0222338 -0.00804585 0)
(-0.025576 -0.00887056 0)
(-0.0289897 -0.00962265 0)
(-0.0324004 -0.0102436 0)
(-0.0357231 -0.0106769 0)
(-0.0388681 -0.0108725 0)
(-0.041745 -0.0107906 0)
(-0.0442682 -0.0104071 0)
(-2.2851e-05 -0.000171509 0)
(-0.000604214 -0.000844817 0)
(-0.00169701 -0.00148397 0)
(-0.00316313 -0.00199247 0)
(-0.00489474 -0.00240929 0)
(-0.0068371 -0.00279525 0)
(-0.00897002 -0.00319928 0)
(-0.0112934 -0.00365083 0)
(-0.0138135 -0.00416025 0)
(-0.0165319 -0.00472162 0)
(-0.0194382 -0.00531582 0)
(-0.0225064 -0.0059138 0)
(-0.0256935 -0.00647982 0)
(-0.028941 -0.0069749 0)
(-0.0321781 -0.00736015 0)
(-0.0353267 -0.00759982 0)
(-0.0383056 -0.00766373 0)
(-0.0410366 -0.0075311 0)
(7.20268e-06 -4.98486e-05 0)
(-0.000391991 -0.000457797 0)
(-0.00124214 -0.000860619 0)
(-0.00242027 -0.00117502 0)
(-0.00382842 -0.00142725 0)
(-0.00541481 -0.00165852 0)
(-0.00716201 -0.00190189 0)
(-0.00907325 -0.00217757 0)
(-0.0111593 -0.00249356 0)
(-0.0134283 -0.00284761 0)
(-0.0158794 -0.00322924 0)
(-0.0184983 -0.00362158 0)
(-0.0212563 -0.00400334 0)
(-0.0241104 -0.0043507 0)
(-0.0270058 -0.00463931 0)
(-0.0298793 -0.00484606 0)
(-0.0326627 -0.00495059 0)
(-0.0352899 -0.00493748 0)
(3.13718e-05 6.05092e-06 0)
(-0.000205354 -0.000218512 0)
(-0.000818656 -0.000446219 0)
(-0.00170114 -0.000619385 0)
(-0.00276789 -0.00075497 0)
(-0.00397339 -0.000877995 0)
(-0.0053037 -0.00100822 0)
(-0.00676381 -0.00115775 0)
(-0.00836615 -0.00133176 0)
(-0.010122 -0.00152965 0)
(-0.012036 -0.00174627 0)
(-0.0141023 -0.00197288 0)
(-0.0163036 -0.00219816 0)
(-0.0186108 -0.00240917 0)
(-0.0209846 -0.0025924 0)
(-0.0233775 -0.0027347 0)
(-0.0257367 -0.00282412 0)
(-0.0280108 -0.00285087 0)
(4.48924e-05 2.01486e-05 0)
(-6.70114e-05 -8.5387e-05 0)
(-0.00046756 -0.000192763 0)
(-0.00106787 -0.000271821 0)
(-0.00180056 -0.000332039 0)
(-0.00262982 -0.000386077 0)
(-0.00354576 -0.000443689 0)
(-0.00455371 -0.000510829 0)
(-0.00566517 -0.000590145 0)
(-0.00689133 -0.000681629 0)
(-0.00823879 -0.000783162 0)
(-0.00970695 -0.000890972 0)
(-0.0112868 -0.00100005 0)
(-0.0129607 -0.00110457 0)
(-0.0147031 -0.00119832 0)
(-0.0164819 -0.00127512 0)
(-0.0182602 -0.00132914 0)
(-0.0200019 -0.00135511 0)
(4.32129e-05 1.44716e-05 0)
(1.08166e-05 -2.22853e-05 0)
(-0.000207866 -5.79651e-05 0)
(-0.000549605 -8.31353e-05 0)
(-0.000969754 -0.000101622 0)
(-0.00144521 -0.00011799 0)
(-0.00197031 -0.000135627 0)
(-0.00254931 -0.000156577 0)
(-0.00319056 -0.000181778 0)
(-0.00390246 -0.000211304 0)
(-0.00469074 -0.000244555 0)
(-0.00555695 -0.000280391 0)
(-0.00649755 -0.000317264 0)
(-0.00750372 -0.000353342 0)
(-0.0085617 -0.000386627 0)
(-0.00965347 -0.000415071 0)
(-0.0107573 -0.000436613 0)
(-0.0118519 -0.000448847 0)
(2.24379e-05 4.6073e-06 0)
(2.44158e-05 -7.78988e-07 0)
(-4.26715e-05 -3.67633e-06 0)
(-0.000152509 -5.53512e-06 0)
(-0.000288312 -6.76099e-06 0)
(-0.000441701 -7.8141e-06 0)
(-0.000610912 -8.99328e-06 0)
(-0.000797833 -1.04746e-05 0)
(-0.00100585 -1.23421e-05 0)
(-0.00123841 -1.4613e-05 0)
(-0.00149811 -1.7252e-05 0)
(-0.00178614 -2.01832e-05 0)
(-0.00210196 -2.3297e-05 0)
(-0.00244321 -2.64588e-05 0)
(-0.00280578 -2.95163e-05 0)
(-0.00318397 -3.23184e-05 0)
(-0.00357052 -3.46288e-05 0)
(-0.00395798 -3.59803e-05 0)
(3.29323e-05 -7.66589e-05 3.70844e-23)
(0.000216678 -0.000172392 -4.76543e-23)
(0.000507564 -0.000224492 0)
(0.000856257 -0.000244784 0)
(0.0012074 -0.000244693 0)
(0.00152396 -0.000231805 4.38147e-23)
(0.0017816 -0.000211548 0)
(0.00196349 -0.000187728 0)
(0.00205776 -0.00016286 0)
(0.00205574 -0.000138385 0)
(0.00195062 -0.000114835 -2.63476e-23)
(0.00173621 -9.21624e-05 0)
(0.0014059 -6.98794e-05 0)
(0.000951949 -4.71761e-05 0)
(0.000365074 -2.30511e-05 0)
(-0.000365765 3.58282e-06 3.63415e-24)
(-0.00125331 3.38222e-05 0)
(-0.00231166 6.87084e-05 0)
(-0.00355571 0.000109159 0)
(-0.00500039 0.000155922 0)
(-0.00665984 0.000209542 0)
(-0.00854639 0.000270339 0)
(-0.0106695 0.000338377 0)
(-0.0130349 0.00041342 7.65713e-23)
(-0.0156433 0.000494892 -8.68074e-23)
(-0.0184895 0.000581821 9.68448e-23)
(-0.0215618 0.000672801 1.06465e-22)
(-0.024841 0.000765962 0)
(-0.0282999 0.000858972 0)
(-0.0319034 0.00094906 -1.30207e-22)
(-0.0356087 0.00103309 -1.35436e-22)
(-0.0393654 0.00110766 0)
(-0.0431168 0.00116926 0)
(-0.0468013 0.00121442 -1.38775e-22)
(-0.0503534 0.00123995 0)
(-0.0537059 0.00124311 0)
(-0.0567919 0.00122185 1.17992e-22)
(-0.0595462 0.00117497 0)
(-0.0619081 0.00110225 8.8422e-23)
(-0.0638222 0.00100441 1.37592e-22)
(-0.0652408 0.000882634 0)
(-0.0661256 0.000738368 0)
(-0.06645 0.000575951 0)
(-0.0661904 0.000405128 0)
(-0.0653332 0.000223384 0)
(-0.0638873 3.54352e-05 -2.12965e-22)
(-0.0618646 -0.000152929 -2.84351e-22)
(-0.059286 -0.000337076 -3.57044e-22)
(-0.0561805 -0.000513132 0)
(-0.0525839 -0.000677863 5.02108e-22)
(-0.048537 -0.000828731 0)
(-0.0440843 -0.000963915 -6.39423e-22)
(-0.0392723 -0.00108227 -7.02427e-22)
(-0.0341491 -0.00118323 0)
(-0.0287627 -0.0012667 0)
(-0.0231606 -0.00133289 0)
(-0.0173896 -0.00138215 -8.92568e-22)
(-0.0114961 -0.00141473 0)
(-0.0055266 -0.00143035 0)
(0.00047151 -0.0014278 0)
(0.0064525 -0.00140617 0)
(0.0123668 -0.00136559 0)
(0.0181592 -0.00130657 0)
(0.0237722 -0.00122903 0)
(0.0291453 -0.0011328 0)
(0.0342155 -0.00101806 6.883e-22)
(0.0389173 -0.000885575 0)
(0.0431852 -0.000736902 0)
(0.0469547 -0.00057444 -4.5828e-22)
(0.0501657 -0.000401476 -3.73449e-22)
(0.0527646 -0.000222109 0)
(0.0547076 -4.11662e-05 1.99796e-22)
(0.0559635 0.000135712 -1.13865e-22)
(0.056514 0.000302854 0)
(0.0563601 0.000457317 -4.91782e-23)
(0.0555232 0.00059182 0)
(0.0540415 0.000703558 0)
(0.0519694 0.000789974 2.53259e-22)
(0.0493776 0.000849771 0)
(0.0463504 0.000882834 -3.53007e-22)
(0.0429815 0.000890366 0)
(0.0393702 0.000874756 4.21049e-22)
(0.0356166 0.000839315 4.43648e-22)
(0.0318175 0.000787962 4.59282e-22)
(0.0280618 0.000724889 9.37241e-22)
(0.0244277 0.000654243 -9.44861e-22)
(0.0209796 0.000579834 0)
(0.0177676 0.000504926 0)
(0.0148266 0.000432104 0)
(0.0121776 0.00036324 -8.9699e-22)
(0.00982915 0.00029955 -8.72921e-22)
(0.00777889 0.000241718 8.46549e-22)
(0.00601588 0.000190068 0)
(0.00452212 0.000144731 -7.9076e-22)
(0.00327408 0.000105765 -7.62937e-22)
(0.00224396 7.32125e-05 -7.36024e-22)
(0.0014009 4.7088e-05 0)
(0.00071229 2.73086e-05 0)
(0.000145186 1.36177e-05 0)
(-0.000332133 5.53197e-06 -6.45475e-22)
(-0.00074869 2.34241e-06 0)
(-0.00112944 3.13364e-06 0)
(-0.00149441 6.86116e-06 5.99052e-22)
(-0.00185817 1.24889e-05 0)
(-0.00223004 1.90734e-05 0)
(-0.00261452 2.58028e-05 5.69042e-22)
(-0.00301206 3.20316e-05 0)
(-0.00341993 3.72939e-05 0)
(-0.0038331 4.12913e-05 -5.47699e-22)
(-0.00424516 4.387e-05 -5.41246e-22)
(-0.00464905 4.49945e-05 0)
(-0.00503766 4.47218e-05 5.28124e-22)
(-0.00540437 4.31779e-05 0)
(-0.00574339 4.0537e-05 -5.13877e-22)
(-0.00604998 3.70041e-05 0)
(-0.00632064 3.27986e-05 -4.98012e-22)
(-0.00655311 2.81409e-05 -4.89457e-22)
(-0.00674636 2.32413e-05 0)
(-0.00690049 1.82907e-05 0)
(-0.00701661 1.34537e-05 0)
(-0.00709668 8.85962e-06 0)
(-0.00714332 4.59686e-06 0)
(-0.00715969 8.01353e-07 0)
(-0.0071491 -2.39224e-06 0)
(-0.00711508 -5.18835e-06 -4.12931e-22)
(-0.00706134 -7.51874e-06 4.03375e-22)
(-0.00699134 -9.36712e-06 0)
(-0.00690836 -1.07674e-05 0)
(-0.00681548 -1.17625e-05 0)
(-0.00671548 -1.23987e-05 0)
(-0.00661082 -1.27244e-05 7.18529e-22)
(-0.00650364 -1.27876e-05 0)
(-0.00639578 -1.26343e-05 -6.87412e-22)
(-0.00628878 -1.23072e-05 6.72782e-22)
(-0.00618388 -1.18449e-05 0)
(-0.0060821 -1.12815e-05 0)
(-0.00598421 -1.06466e-05 0)
(-0.00589078 -9.96523e-06 -6.19991e-22)
(-0.00580223 -9.25843e-06 -6.08079e-22)
(-0.0057188 -8.54331e-06 0)
(-0.00564065 -7.83356e-06 -5.85562e-22)
(-0.0055678 -7.13992e-06 -5.74886e-22)
(-0.00550021 -6.47053e-06 5.64553e-22)
(-0.00543776 -5.83141e-06 0)
(-0.0053803 -5.22676e-06 0)
(-0.00532761 -4.65934e-06 5.35293e-22)
(-0.00527946 -4.13071e-06 0)
(-0.0052356 -3.64149e-06 0)
(-0.00519576 -3.19152e-06 0)
(-0.00515967 -2.78003e-06 0)
(-0.00512705 -2.40578e-06 -4.90679e-22)
(-0.00509762 -2.06715e-06 -4.82177e-22)
(-0.00507112 -1.76224e-06 0)
(-0.00504728 -1.48895e-06 -4.65454e-22)
(-0.00502586 -1.24504e-06 0)
(-0.00500661 -1.02819e-06 0)
(-0.00498933 -8.35996e-07 -4.40884e-22)
(-0.0049738 -6.66068e-07 0)
(-0.00495983 -5.15969e-07 -4.24732e-22)
(-0.00494725 -3.83196e-07 0)
(-0.00493591 -2.65018e-07 0)
(-0.00492569 -1.58179e-07 -4.00702e-22)
(-0.0049165 -5.83011e-08 0)
(-0.00490828 4.09539e-08 -3.84748e-22)
(-0.00490106 1.48766e-07 0)
(-0.00489497 2.7796e-07 0)
(-0.00489029 4.45336e-07 0)
(-0.00488746 6.68489e-07 3.52782e-22)
(-0.00488707 9.5694e-07 0)
(-0.00488979 1.28606e-06 -3.36548e-22)
(-0.00489615 1.5734e-06 0)
(-0.00490606 1.96176e-06 0)
(-0.00491819 2.28193e-06 0)
(-0.0049295 2.27658e-06 0)
(-0.00493438 1.92171e-06 0)
(-0.00492392 5.72554e-07 0)
(-0.00488335 -2.56718e-06 0)
(-0.00479684 -8.80164e-06 5.2377e-22)
(-0.00465485 -1.08731e-05 0)
(-0.00413089 -8.43638e-05 0)
(4.87261e-05 -0.000419277 -1.2028e-22)
(0.000342213 -0.000944421 1.56322e-22)
(0.000750179 -0.00120894 0)
(0.00118854 -0.00127019 -1.03783e-22)
(0.00156845 -0.00118013 0)
(0.00182521 -0.000981232 -4.67237e-23)
(0.00191083 -0.000706278 9.27019e-23)
(0.00178729 -0.000378791 8.70431e-23)
(0.00142293 -1.4782e-05 0)
(0.00079055 0.000376083 7.29341e-23)
(-0.000134972 0.000789122 2.8233e-23)
(-0.00137828 0.00122346 0)
(-0.00296469 0.00168115 0)
(-0.00492119 0.00216613 0)
(-0.00727672 0.00268332 0)
(-0.010062 0.00323759 -3.83233e-24)
(-0.0133088 0.00383282 0)
(-0.0170483 0.00447114 2.21579e-23)
(-0.0213097 0.00515218 0)
(-0.0261174 0.00587255 0)
(-0.0314888 0.00662558 -7.35923e-23)
(-0.0374312 0.00740114 0)
(-0.0439396 0.0081857 1.11639e-22)
(-0.0509943 0.00896244 -7.73949e-23)
(-0.0585585 0.00971158 8.71229e-23)
(-0.0665776 0.0104109 -9.64984e-23)
(-0.0749781 0.0110364 -1.05319e-22)
(-0.0836683 0.0115633 0)
(-0.0925393 0.0119668 0)
(-0.101468 0.0122237 1.26186e-22)
(-0.110318 0.0123134 -1.18664e-22)
(-0.118946 0.0122192 0)
(-0.127207 0.0119292 0)
(-0.134953 0.0114372 1.31817e-22)
(-0.142045 0.0107433 0)
(-0.14835 0.00985348 0)
(-0.153751 0.00878008 -1.1136e-22)
(-0.158144 0.00754084 0)
(-0.161444 0.00615809 9.86247e-23)
(-0.163587 0.00465741 -1.30121e-22)
(-0.164526 0.00306641 0)
(-0.164233 0.00141513 0)
(-0.162698 -0.000263214 -1.76015e-23)
(-0.159944 -0.00193526 9.74051e-23)
(-0.156001 -0.00357443 2.21597e-22)
(-0.15091 -0.00515397 -1.48642e-22)
(-0.144729 -0.00665079 2.75055e-22)
(-0.137526 -0.00804601 9.8238e-22)
(-0.129374 -0.00932487 -7.81025e-22)
(-0.120356 -0.0104768 -4.9482e-22)
(-0.110554 -0.0114951 0)
(-0.100056 -0.0123768 6.39938e-22)
(-0.0889471 -0.0131222 -6.45161e-22)
(-0.077312 -0.0137338 0)
(-0.0652334 -0.0142159 0)
(-0.052791 -0.0145738 0)
(-0.0400621 -0.0148124 9.37001e-22)
(-0.0271218 -0.0149361 0)
(-0.014045 -0.0149472 -1.9472e-21)
(-0.000908523 -0.0148456 0)
(0.012212 -0.014629 -1.93176e-21)
(0.0252351 -0.0142923 0)
(0.0380676 -0.0138316 1.75623e-21)
(0.050611 -0.0132424 0)
(0.0627601 -0.0125203 -1.51288e-21)
(0.0744016 -0.0116622 6.59222e-22)
(0.0854145 -0.0106674 0)
(0.0956719 -0.00953885 1.05379e-21)
(0.105043 -0.00828423 4.64928e-22)
(0.113398 -0.00691646 3.77173e-22)
(0.12061 -0.00545422 0)
(0.126561 -0.00392193 1.62821e-22)
(0.131146 -0.00234958 1.14065e-22)
(0.134283 -0.000772393 0)
(0.135909 0.000771692 4.92314e-23)
(0.135994 0.00224558 -2.70179e-22)
(0.134553 0.00360723 0)
(0.131635 0.00482174 -2.53306e-22)
(0.127327 0.00586001 0)
(0.121757 0.00669897 1.06733e-21)
(0.115089 0.00732354 0)
(0.107517 0.0077282 -1.2742e-21)
(0.0992576 0.0079173 -4.52754e-22)
(0.0905388 0.00790464 4.5634e-22)
(0.0815908 0.00771213 9.32603e-22)
(0.0726336 0.00736788 -9.43308e-22)
(0.0638674 0.00690377 0)
(0.055464 0.00635289 0)
(0.0475615 0.00574723 0)
(0.0402619 0.00511584 2.84879e-21)
(0.0336309 0.00448364 9.45313e-22)
(0.0277003 0.00387106 -9.22719e-22)
(0.0224722 0.0032942 0)
(0.0179232 0.00276528 -8.38755e-22)
(0.0140092 0.0022933 8.45073e-22)
(0.01067 0.00188433 8.18733e-22)
(0.00783409 0.00154168 0)
(0.00542324 0.00126583 0)
(0.00335716 0.00105436 0)
(0.00155798 0.000902083 7.27503e-22)
(-4.56832e-05 0.000801451 0)
(-0.00151557 0.000743129 -1.37037e-21)
(-0.0029016 0.000716783 -2.01692e-21)
(-0.00424055 0.00071215 1.31439e-21)
(-0.00555642 0.000719897 0)
(-0.00686176 0.000732025 6.30938e-22)
(-0.00815936 0.000742164 0)
(-0.00944441 0.000745691 1.23913e-21)
(-0.0107067 0.000739643 -6.07922e-22)
(-0.0119327 0.000722521 -6.01109e-22)
(-0.0131075 0.000694038 0)
(-0.0142161 0.000654847 -1.77499e-21)
(-0.015245 0.000606289 1.16617e-21)
(-0.0161826 0.000550159 5.77637e-22)
(-0.01702 0.000488499 0)
(-0.0177514 0.000423433 5.59909e-22)
(-0.0183736 0.000357024 1.64839e-21)
(-0.0188867 0.000291171 0)
(-0.0192931 0.000227528 1.05899e-21)
(-0.0195975 0.000167461 1.03858e-21)
(-0.0198063 0.000112018 1.01775e-21)
(-0.0199274 6.19354e-05 0)
(-0.0199697 1.77295e-05 0)
(-0.0199424 -2.02818e-05 0)
(-0.0198551 -5.24027e-05 -4.66695e-22)
(-0.0197172 -7.87592e-05 -4.55857e-22)
(-0.0195376 -9.96706e-05 0)
(-0.0193249 -0.000115583 -8.72047e-22)
(-0.0190868 -0.000127008 -8.52767e-22)
(-0.0188304 -0.000134484 0)
(-0.0185619 -0.000138556 -8.15147e-22)
(-0.0182867 -0.000139753 -1.59748e-21)
(-0.0180095 -0.000138572 7.81111e-22)
(-0.0177341 -0.000135469 7.66957e-22)
(-0.0174636 -0.000130857 0)
(-0.0172008 -0.000125099 0)
(-0.0169474 -0.000118509 0)
(-0.0167052 -0.000111355 7.07325e-22)
(-0.016475 -0.000103864 -6.95719e-22)
(-0.0162577 -9.62206e-05 -1.36476e-21)
(-0.0160537 -8.85764e-05 6.69585e-22)
(-0.015863 -8.10518e-05 -6.59011e-22)
(-0.0156857 -7.37405e-05 -6.46519e-22)
(-0.0155214 -6.67137e-05 0)
(-0.0153699 -6.00238e-05 0)
(-0.0152305 -5.37073e-05 6.15103e-22)
(-0.0151028 -4.77874e-05 0)
(-0.0149862 -4.22769e-05 0)
(-0.01488 -3.71796e-05 -1.16908e-21)
(-0.0147835 -3.24921e-05 0)
(-0.0146959 -2.82055e-05 -5.65473e-22)
(-0.0146167 -2.43062e-05 5.55626e-22)
(-0.0145452 -2.07771e-05 0)
(-0.0144806 -1.75985e-05 -5.3733e-22)
(-0.0144224 -1.47486e-05 0)
(-0.0143699 -1.22043e-05 0)
(-0.0143226 -9.94152e-06 5.09688e-22)
(-0.0142799 -7.93559e-06 -1.00144e-21)
(-0.0142414 -6.1613e-06 4.91639e-22)
(-0.0142065 -4.59234e-06 0)
(-0.014175 -3.19987e-06 0)
(-0.0141463 -1.94954e-06 -4.64749e-22)
(-0.0141204 -7.96295e-07 0)
(-0.014097 3.23173e-07 -4.46776e-22)
(-0.0140762 1.49897e-06 0)
(-0.0140581 2.85379e-06 0)
(-0.0140435 4.53841e-06 0)
(-0.0140333 6.70253e-06 -4.10661e-22)
(-0.0140286 9.42673e-06 0)
(-0.0140307 1.26002e-05 3.92251e-22)
(-0.0140403 1.57714e-05 0)
(-0.0140561 1.83029e-05 0)
(-0.0140741 1.8733e-05 -7.26366e-22)
(-0.0140851 1.4939e-05 7.05759e-22)
(-0.0140739 4.53778e-06 0)
(-0.014017 -1.62657e-05 0)
(-0.0138786 -5.22574e-05 0)
(-0.0136221 -0.000110378 -1.84438e-21)
(-0.0132043 -0.000210136 0)
(-0.0121822 -0.000441875 1.12704e-21)
(3.98862e-05 -0.00077724 -8.31728e-24)
(0.000239316 -0.0016477 -2.21037e-22)
(0.000445864 -0.00197786 0)
(0.000568569 -0.00189881 2.16151e-22)
(0.000517786 -0.00151246 0)
(0.000224259 -0.000896288 0)
(-0.000367627 -0.000107998 8.29778e-24)
(-0.00130641 0.00081102 -8.69989e-23)
(-0.00263757 0.0018331 -8.93766e-23)
(-0.00440427 0.00294147 -7.23385e-23)
(-0.00664887 0.00412806 0)
(-0.00941409 0.00539137 0)
(-0.0127435 0.00673443 5.64115e-23)
(-0.0166815 0.00816274 9.22577e-23)
(-0.0212723 0.00968207 -6.98985e-23)
(-0.0265587 0.0112962 0)
(-0.0325797 0.0130047 -1.93918e-23)
(-0.0393674 0.014801 -2.12559e-23)
(-0.0469434 0.0166709 0)
(-0.055315 0.0185913 7.20232e-23)
(-0.0644712 0.0205304 6.94031e-23)
(-0.0743795 0.0224476 -1.43429e-22)
(-0.0849827 0.0242945 -1.0406e-22)
(-0.0961973 0.0260164 0)
(-0.107914 0.0275547 2.6253e-22)
(-0.119997 0.0288491 3.03684e-22)
(-0.132289 0.0298408 0)
(-0.144615 0.0304757 3.83943e-22)
(-0.156786 0.0307074 0)
(-0.168608 0.0305001 4.55076e-22)
(-0.179888 0.0298303 2.25372e-22)
(-0.190438 0.0286889 0)
(-0.200085 0.0270811 0)
(-0.20867 0.0250259 0)
(-0.216058 0.0225554 0)
(-0.222136 0.0197128 0)
(-0.226816 0.01655 0)
(-0.230033 0.0131257 4.66742e-22)
(-0.231748 0.00950245 -5.879e-22)
(-0.231945 0.00574468 0)
(-0.230627 0.00191776 0)
(-0.227815 -0.00191282 0)
(-0.22356 -0.00568547 -9.20745e-23)
(-0.217911 -0.0093484 -9.03657e-23)
(-0.210934 -0.0128533 -3.21042e-22)
(-0.202702 -0.0161609 5.68838e-22)
(-0.193296 -0.0192391 3.70467e-22)
(-0.182803 -0.0220632 -5.94154e-22)
(-0.171315 -0.0246154 8.63973e-23)
(-0.158924 -0.0268853 -7.87139e-22)
(-0.145723 -0.0288688 0)
(-0.131806 -0.0305679 -1.06664e-21)
(-0.117261 -0.0319892 8.26627e-23)
(-0.102176 -0.0331429 0)
(-0.0866332 -0.0340413 0)
(-0.0707099 -0.0346971 1.55937e-21)
(-0.0544811 -0.0351224 0)
(-0.0380182 -0.0353267 0)
(-0.0213924 -0.035316 -1.72497e-21)
(-0.00467668 -0.0350916 -3.68451e-21)
(0.0120566 -0.0346499 1.8913e-21)
(0.0287344 -0.0339768 0)
(0.0452632 -0.0330594 -1.7049e-21)
(0.0615417 -0.0318844 0)
(0.0774597 -0.0304381 -1.3261e-21)
(0.0928963 -0.0287087 -1.31577e-21)
(0.107718 -0.0266877 2.20452e-21)
(0.121783 -0.024373 8.83924e-22)
(0.134938 -0.0217701 0)
(0.147025 -0.0188941 -1.23241e-21)
(0.157882 -0.0157711 0)
(0.167351 -0.0124385 -9.14546e-22)
(0.175275 -0.00894556 -2.5085e-22)
(0.181515 -0.00535298 5.62939e-23)
(0.185946 -0.00173262 -3.46277e-22)
(0.188472 0.00183691 8.6799e-22)
(0.189012 0.00526424 0)
(0.18755 0.00846163 0)
(0.184112 0.0113477 -1.24413e-21)
(0.178775 0.0138489 -2.05977e-21)
(0.17167 0.0159042 0)
(0.162984 0.0174694 7.86831e-22)
(0.152954 0.0185217 0)
(0.141857 0.0190617 -2.61447e-21)
(0.13 0.0191131 1.05951e-23)
(0.117703 0.0187217 2.48885e-25)
(0.105281 0.0179502 1.81083e-21)
(0.0930305 0.0168735 0)
(0.0812103 0.0155721 -1.79091e-21)
(0.0700332 0.0141258 -2.74373e-23)
(0.059659 0.0126089 0)
(0.050192 0.0110869 0)
(0.0416841 0.00961454 0)
(0.0341398 0.00823568 1.66339e-21)
(0.027523 0.00698355 0)
(0.021766 0.00588136 0)
(0.0167775 0.0049427 0)
(0.0124514 0.00417189 0)
(0.00867577 0.00356444 0)
(0.00533993 0.00310791 1.40674e-21)
(0.00234165 0.00278345 0)
(-0.000407693 0.00256775 1.36679e-21)
(-0.00298027 0.00243503 1.33695e-21)
(-0.00542997 0.0023595 -1.30938e-21)
(-0.00779206 0.00231776 0)
(-0.0100858 0.00228993 -1.2645e-21)