/*--------------------------------*- C++ -*----------------------------------*\
  =========                 |
  \\      /  F ield         | OpenFOAM: The Open Source CFD Toolbox
   \\    /   O peration     | Website:  https://openfoam.org
    \\  /    A nd           | Version:  8
     \\/     M anipulation  |
\*---------------------------------------------------------------------------*/
FoamFile
{
    version     2.0;
    format      ascii;
    class       volScalarField;
    location    "0.04";
    object      p;
}
// * * * * * * * * * * * * * * * * * * * * * * * * * * * * * * * * * * * * * //

dimensions      [0 2 -2 0 0 0 0];

internalField   nonuniform List<scalar> 
12225
(
1.5256
1.45904
1.44508
1.43153
1.41866
1.40652
1.39483
1.3835
1.37247
1.36169
1.35109
1.34062
1.33018
1.31967
1.30891
1.29756
1.28519
1.26705
1.51664
1.46007
1.44546
1.43172
1.41874
1.40655
1.39483
1.38347
1.37243
1.36163
1.35101
1.3405
1.33001
1.31942
1.30852
1.29695
1.28403
1.26668
1.50807
1.46097
1.44579
1.43191
1.41882
1.40658
1.39483
1.38346
1.37239
1.36157
1.35093
1.34039
1.32987
1.31921
1.30823
1.29655
1.2835
1.26774
1.5013
1.46166
1.44593
1.43204
1.41889
1.40662
1.39484
1.38346
1.37238
1.36156
1.35091
1.34036
1.32982
1.31917
1.30821
1.29664
1.284
1.26991
1.49575
1.46212
1.44592
1.43212
1.41896
1.40666
1.39487
1.38348
1.37241
1.36158
1.35094
1.34041
1.32991
1.31932
1.30848
1.29721
1.28526
1.27271
1.49106
1.46231
1.44583
1.43216
1.41902
1.4067
1.39492
1.38354
1.37247
1.36166
1.35105
1.34056
1.33012
1.31965
1.30904
1.29817
1.28699
1.27577
1.4871
1.46222
1.44567
1.43216
1.41908
1.40676
1.39499
1.38362
1.37258
1.3618
1.35123
1.34081
1.33049
1.32018
1.30984
1.29943
1.28901
1.27889
1.48378
1.46188
1.44544
1.43211
1.41914
1.40684
1.39509
1.38375
1.37274
1.36201
1.3515
1.34118
1.33099
1.3209
1.31088
1.30094
1.2912
1.28196
1.481
1.46135
1.44515
1.43202
1.41918
1.40692
1.39521
1.38391
1.37295
1.36228
1.35187
1.34166
1.33164
1.32179
1.31209
1.30261
1.29347
1.28492
1.4787
1.4607
1.44482
1.43189
1.41921
1.40702
1.39537
1.38412
1.37322
1.36263
1.35232
1.34226
1.33242
1.32282
1.31345
1.3044
1.29576
1.28773
1.4768
1.45998
1.44445
1.43173
1.41923
1.40713
1.39555
1.38437
1.37355
1.36306
1.35287
1.34296
1.33332
1.32397
1.31492
1.30624
1.29803
1.29042
1.47539
1.45932
1.44409
1.43158
1.41925
1.40725
1.39574
1.38464
1.37391
1.36352
1.35345
1.34369
1.33425
1.32512
1.31635
1.30797
1.30009
1.29278
1.47416
1.45876
1.44374
1.43139
1.41926
1.40738
1.39595
1.38495
1.37431
1.36403
1.35409
1.34449
1.33523
1.32632
1.3178
1.3097
1.30208
1.29502
1.47294
1.45821
1.44339
1.43119
1.41928
1.40755
1.39624
1.38534
1.37483
1.36468
1.3549
1.34548
1.33643
1.32776
1.31949
1.31166
1.3043
1.29746
1.47187
1.45771
1.44305
1.43099
1.41934
1.40778
1.39661
1.38586
1.37549
1.36551
1.35591
1.34669
1.33786
1.32943
1.32142
1.31384
1.30673
1.30008
1.47101
1.45732
1.4428
1.43087
1.41947
1.40812
1.39711
1.38652
1.37633
1.36653
1.35713
1.34814
1.33954
1.33136
1.32359
1.31624
1.30933
1.30286
1.4705
1.45714
1.44275
1.43092
1.41974
1.4086
1.39777
1.38736
1.37736
1.36777
1.35858
1.34981
1.34144
1.33349
1.32594
1.31881
1.31208
1.30576
1.47046
1.45734
1.44302
1.43125
1.42025
1.4093
1.39864
1.38841
1.37861
1.36921
1.36023
1.35167
1.34352
1.33577
1.32843
1.32147
1.3149
1.3087
1.47114
1.4581
1.4438
1.43206
1.42114
1.41031
1.39978
1.3897
1.38005
1.37084
1.36204
1.35366
1.34569
1.33811
1.33093
1.32412
1.31768
1.31158
1.47262
1.45937
1.44498
1.43321
1.42224
1.41138
1.40089
1.39087
1.3813
1.37218
1.36349
1.35521
1.34735
1.33988
1.33279
1.32607
1.3197
1.31368
1.47434
1.46077
1.44618
1.43429
1.42318
1.41224
1.40172
1.39171
1.38217
1.37309
1.36445
1.35623
1.34842
1.34101
1.33398
1.3273
1.32098
1.31499
1.47642
1.46235
1.44739
1.43531
1.42401
1.41294
1.40237
1.39234
1.38281
1.37375
1.36513
1.35695
1.34918
1.3418
1.3348
1.32815
1.32186
1.31589
1.47895
1.46402
1.44853
1.4362
1.42467
1.41347
1.40285
1.39279
1.38326
1.3742
1.3656
1.35744
1.34969
1.34233
1.33535
1.32872
1.32245
1.3165
1.48208
1.46568
1.4495
1.43692
1.42515
1.41383
1.40316
1.39309
1.38355
1.3745
1.36591
1.35776
1.35002
1.34268
1.33571
1.3291
1.32283
1.31689
1.48597
1.46716
1.45022
1.43743
1.42545
1.41404
1.40335
1.39327
1.38373
1.37468
1.3661
1.35796
1.35023
1.34289
1.33593
1.32933
1.32307
1.31714
1.49082
1.46826
1.45066
1.43775
1.42559
1.41414
1.40344
1.39336
1.38382
1.37478
1.3662
1.35806
1.35034
1.34301
1.33605
1.32945
1.3232
1.31727
1.49687
1.46879
1.45085
1.43789
1.4256
1.41415
1.40347
1.3934
1.38386
1.37482
1.36625
1.35811
1.35039
1.34306
1.33611
1.32951
1.32325
1.31733
1.50462
1.46872
1.45078
1.43785
1.42553
1.41411
1.40345
1.39339
1.38386
1.37482
1.36625
1.35811
1.35039
1.34307
1.33612
1.32952
1.32326
1.31734
1.51487
1.46812
1.45043
1.43764
1.42539
1.41404
1.4034
1.39335
1.38382
1.37479
1.36622
1.35809
1.35037
1.34304
1.33609
1.32949
1.32323
1.31731
1.52571
1.46719
1.44999
1.43738
1.42525
1.41396
1.40334
1.3933
1.38379
1.37476
1.36619
1.35805
1.35033
1.34301
1.33605
1.32945
1.32319
1.31726
1.17686
1.1769
1.17693
1.17692
1.17687
1.17677
1.17662
1.17642
1.17616
1.17584
1.17547
1.17504
1.17455
1.174
1.17339
1.17272
1.17199
1.1712
1.17035
1.16943
1.16845
1.16742
1.16632
1.16516
1.16393
1.16265
1.16131
1.15991
1.15844
1.15692
1.15534
1.1537
1.152
1.15025
1.14844
1.14657
1.14465
1.14268
1.14065
1.13857
1.13643
1.13425
1.13201
1.12972
1.12738
1.125
1.12256
1.12008
1.11755
1.11497
1.11235
1.10968
1.10697
1.10421
1.10141
1.09857
1.09568
1.09275
1.08978
1.08677
1.08372
1.08062
1.07749
1.07431
1.0711
1.06784
1.06455
1.06122
1.05785
1.05444
1.05099
1.04751
1.04399
1.04043
1.03683
1.0332
1.02953
1.02582
1.02208
1.0183
1.01448
1.01063
1.00674
1.00281
0.998851
0.994852
0.990817
0.986745
0.982638
0.978494
0.974313
0.970096
0.965843
0.961553
0.957226
0.952863
0.948462
0.944024
0.939548
0.935035
0.930484
0.925895
0.921268
0.916603
0.911899
0.907156
0.902375
0.897554
0.892695
0.887796
0.882857
0.877879
0.872861
0.867803
0.862705
0.857566
0.852387
0.847167
0.841905
0.836602
0.831258
0.825871
0.820442
0.81497
0.809456
0.803898
0.798297
0.792652
0.786963
0.78123
0.775453
0.76963
0.763763
0.757851
0.751892
0.745888
0.739838
0.733741
0.727597
0.721406
0.715167
0.70888
0.702545
0.69616
0.689727
0.683243
0.676709
0.670125
0.663489
0.656802
0.650063
0.643272
0.636428
0.629531
0.62258
0.615576
0.608517
0.601403
0.594235
0.587011
0.579731
0.572395
0.565003
0.557555
0.55005
0.542487
0.534869
0.527193
0.519461
0.511674
0.503833
0.495938
0.487994
0.480002
0.471969
0.463903
0.455818
0.447735
0.43971
0.431727
1.1768
1.17686
1.17689
1.17688
1.17682
1.17672
1.17656
1.17636
1.1761
1.17578
1.17541
1.17498
1.17449
1.17394
1.17333
1.17266
1.17193
1.17114
1.17029
1.16937
1.1684
1.16736
1.16626
1.1651
1.16388
1.1626
1.16126
1.15986
1.15839
1.15687
1.15529
1.15366
1.15196
1.15021
1.1484
1.14654
1.14462
1.14264
1.14061
1.13853
1.1364
1.13421
1.13198
1.12969
1.12736
1.12497
1.12254
1.12006
1.11753
1.11495
1.11233
1.10966
1.10695
1.1042
1.1014
1.09855
1.09567
1.09274
1.08977
1.08676
1.0837
1.08061
1.07747
1.0743
1.07109
1.06783
1.06454
1.06121
1.05784
1.05443
1.05099
1.0475
1.04398
1.04042
1.03683
1.03319
1.02952
1.02582
1.02207
1.01829
1.01448
1.01062
1.00673
1.00281
0.998846
0.994848
0.990813
0.986741
0.982634
0.97849
0.97431
0.970093
0.96584
0.96155
0.957223
0.95286
0.948459
0.944021
0.939546
0.935033
0.930482
0.925893
0.921266
0.9166
0.911896
0.907154
0.902372
0.897552
0.892693
0.887794
0.882855
0.877877
0.872859
0.867801
0.862703
0.857565
0.852385
0.847165
0.841904
0.836601
0.831256
0.825869
0.82044
0.814969
0.809454
0.803897
0.798295
0.792651
0.786962
0.781229
0.775451
0.769629
0.763762
0.757849
0.751891
0.745887
0.739836
0.733739
0.727596
0.721405
0.715166
0.708879
0.702544
0.696159
0.689726
0.683242
0.676708
0.670124
0.663488
0.656801
0.650062
0.643271
0.636427
0.62953
0.622579
0.615575
0.608516
0.601402
0.594234
0.58701
0.57973
0.572395
0.565003
0.557554
0.550049
0.542487
0.534868
0.527192
0.519461
0.511674
0.503832
0.495938
0.487993
0.480002
0.471969
0.463903
0.455818
0.447734
0.439699
0.431693
1.17691
1.17698
1.17702
1.17701
1.17696
1.17685
1.1767
1.17649
1.17622
1.1759
1.17553
1.1751
1.1746
1.17405
1.17344
1.17277
1.17204
1.17124
1.17039
1.16947
1.16849
1.16745
1.16635
1.16519
1.16397
1.16268
1.16134
1.15993
1.15847
1.15694
1.15536
1.15372
1.15202
1.15027
1.14845
1.14659
1.14466
1.14269
1.14066
1.13857
1.13644
1.13425
1.13201
1.12973
1.12739
1.125
1.12257
1.12008
1.11755
1.11498
1.11235
1.10968
1.10697
1.10421
1.10141
1.09857
1.09568
1.09275
1.08978
1.08677
1.08371
1.08062
1.07748
1.07431
1.07109
1.06784
1.06455
1.06122
1.05785
1.05444
1.05099
1.04751
1.04399
1.04043
1.03683
1.0332
1.02953
1.02582
1.02208
1.0183
1.01448
1.01063
1.00674
1.00281
0.998848
0.994849
0.990814
0.986742
0.982635
0.978491
0.97431
0.970094
0.96584
0.96155
0.957224
0.95286
0.948459
0.944021
0.939546
0.935033
0.930482
0.925893
0.921266
0.9166
0.911896
0.907154
0.902372
0.897552
0.892692
0.887793
0.882855
0.877877
0.872859
0.867801
0.862703
0.857564
0.852385
0.847165
0.841903
0.8366
0.831256
0.825869
0.82044
0.814968
0.809454
0.803896
0.798295
0.79265
0.786961
0.781228
0.775451
0.769628
0.763761
0.757848
0.75189
0.745886
0.739836
0.733739
0.727595
0.721404
0.715165
0.708879
0.702543
0.696159
0.689725
0.683242
0.676708
0.670124
0.663488
0.656801
0.650062
0.643271
0.636427
0.62953
0.622579
0.615575
0.608516
0.601402
0.594234
0.58701
0.57973
0.572394
0.565002
0.557554
0.550048
0.542486
0.534867
0.527192
0.51946
0.511672
0.503831
0.495936
0.487991
0.479998
0.471964
0.463896
0.455807
0.447714
0.439659
0.431603
1.17723
1.1773
1.17735
1.17735
1.17729
1.17719
1.17703
1.17682
1.17655
1.17623
1.17585
1.17542
1.17492
1.17436
1.17375
1.17307
1.17233
1.17153
1.17067
1.16975
1.16876
1.16772
1.16661
1.16544
1.1642
1.16291
1.16156
1.16015
1.15867
1.15714
1.15555
1.1539
1.1522
1.15044
1.14862
1.14674
1.14481
1.14283
1.14079
1.1387
1.13656
1.13437
1.13213
1.12983
1.12749
1.1251
1.12266
1.12017
1.11763
1.11505
1.11243
1.10975
1.10704
1.10428
1.10147
1.09862
1.09573
1.0928
1.08983
1.08681
1.08376
1.08066
1.07752
1.07434
1.07113
1.06787
1.06458
1.06124
1.05787
1.05446
1.05101
1.04753
1.04401
1.04045
1.03685
1.03321
1.02954
1.02583
1.02209
1.01831
1.01449
1.01064
1.00675
1.00282
0.998857
0.994857
0.990822
0.98675
0.982642
0.978497
0.974316
0.970099
0.965846
0.961555
0.957228
0.952864
0.948463
0.944025
0.939549
0.935036
0.930485
0.925895
0.921268
0.916602
0.911898
0.907155
0.902374
0.897553
0.892694
0.887795
0.882856
0.877878
0.87286
0.867802
0.862704
0.857565
0.852386
0.847165
0.841904
0.836601
0.831256
0.825869
0.82044
0.814969
0.809454
0.803896
0.798295
0.79265
0.786961
0.781228
0.775451
0.769629
0.763761
0.757849
0.751891
0.745887
0.739836
0.733739
0.727596
0.721405
0.715166
0.708879
0.702544
0.696159
0.689726
0.683242
0.676709
0.670124
0.663489
0.656802
0.650063
0.643271
0.636427
0.62953
0.62258
0.615575
0.608516
0.601403
0.594234
0.58701
0.57973
0.572395
0.565002
0.557554
0.550048
0.542486
0.534867
0.527191
0.519458
0.51167
0.503828
0.495932
0.487985
0.479991
0.471953
0.46388
0.455781
0.447672
0.439582
0.431472
1.17775
1.17782
1.17788
1.17788
1.17782
1.17772
1.17756
1.17735
1.17708
1.17675
1.17637
1.17592
1.17542
1.17486
1.17423
1.17355
1.1728
1.17199
1.17112
1.17019
1.16919
1.16813
1.16701
1.16583
1.16459
1.16328
1.16192
1.16049
1.15901
1.15746
1.15586
1.1542
1.15248
1.15071
1.14888
1.147
1.14506
1.14306
1.14102
1.13892
1.13676
1.13456
1.13231
1.13001
1.12766
1.12526
1.12281
1.12031
1.11777
1.11518
1.11255
1.10987
1.10715
1.10438
1.10157
1.09872
1.09582
1.09289
1.08991
1.08689
1.08383
1.08072
1.07758
1.0744
1.07118
1.06792
1.06463
1.06129
1.05792
1.0545
1.05105
1.04757
1.04404
1.04048
1.03688
1.03324
1.02957
1.02586
1.02211
1.01833
1.01451
1.01066
1.00676
1.00284
0.998873
0.994872
0.990836
0.986763
0.982654
0.978508
0.974327
0.970109
0.965855
0.961564
0.957236
0.952872
0.94847
0.944032
0.939555
0.935041
0.93049
0.9259
0.921273
0.916607
0.911902
0.907159
0.902377
0.897556
0.892696
0.887797
0.882859
0.87788
0.872862
0.867804
0.862706
0.857567
0.852387
0.847167
0.841905
0.836602
0.831257
0.825871
0.820441
0.81497
0.809455
0.803897
0.798296
0.792651
0.786962
0.781229
0.775452
0.769629
0.763762
0.75785
0.751892
0.745887
0.739837
0.73374
0.727597
0.721406
0.715167
0.70888
0.702545
0.696161
0.689727
0.683244
0.67671
0.670125
0.66349
0.656803
0.650064
0.643273
0.636429
0.629531
0.622581
0.615576
0.608517
0.601404
0.594235
0.587011
0.579731
0.572395
0.565003
0.557554
0.550048
0.542486
0.534866
0.527189
0.519456
0.511667
0.503823
0.495926
0.487976
0.479978
0.471936
0.463855
0.455744
0.447613
0.439482
0.431318
1.17847
1.17855
1.1786
1.1786
1.17855
1.17844
1.17828
1.17806
1.17779
1.17746
1.17707
1.17662
1.17611
1.17554
1.1749
1.1742
1.17344
1.17262
1.17174
1.17079
1.16978
1.1687
1.16757
1.16637
1.16511
1.16379
1.16241
1.16097
1.15947
1.15791
1.15629
1.15461
1.15288
1.15109
1.14924
1.14734
1.14539
1.14338
1.14132
1.13921
1.13704
1.13483
1.13256
1.13025
1.12789
1.12547
1.12302
1.12051
1.11796
1.11536
1.11272
1.11003
1.1073
1.10453
1.10171
1.09885
1.09595
1.093
1.09002
1.08699
1.08392
1.08082
1.07767
1.07449
1.07126
1.068
1.0647
1.06136
1.05798
1.05456
1.05111
1.04762
1.04409
1.04052
1.03692
1.03328
1.02961
1.0259
1.02215
1.01836
1.01454
1.01068
1.00679
1.00286
0.998895
0.994893
0.990855
0.986781
0.982671
0.978525
0.974342
0.970123
0.965868
0.961576
0.957248
0.952883
0.94848
0.944041
0.939564
0.93505
0.930497
0.925907
0.921279
0.916613
0.911908
0.907164
0.902382
0.897561
0.892701
0.887801
0.882862
0.877884
0.872865
0.867807
0.862708
0.85757
0.85239
0.847169
0.841908
0.836604
0.83126
0.825873
0.820443
0.814971
0.809457
0.803899
0.798298
0.792653
0.786964
0.781231
0.775453
0.769631
0.763764
0.757851
0.751893
0.745889
0.739839
0.733742
0.727598
0.721407
0.715169
0.708882
0.702547
0.696162
0.689729
0.683245
0.676712
0.670127
0.663492
0.656805
0.650066
0.643274
0.63643
0.629533
0.622582
0.615578
0.608519
0.601405
0.594237
0.587012
0.579732
0.572396
0.565004
0.557555
0.550048
0.542485
0.534865
0.527188
0.519454
0.511664
0.503818
0.495918
0.487965
0.479963
0.471914
0.463823
0.455697
0.447543
0.439371
0.431154
1.17939
1.17947
1.17953
1.17953
1.17947
1.17937
1.1792
1.17898
1.1787
1.17836
1.17797
1.17751
1.17698
1.1764
1.17575
1.17504
1.17426
1.17342
1.17252
1.17156
1.17053
1.16943
1.16828
1.16706
1.16578
1.16444
1.16303
1.16157
1.16005
1.15847
1.15683
1.15513
1.15338
1.15157
1.14971
1.14779
1.14581
1.14379
1.14171
1.13958
1.1374
1.13517
1.13289
1.13056
1.12818
1.12575
1.12328
1.12076
1.1182
1.11559
1.11293
1.11024
1.10749
1.10471
1.10188
1.09901
1.0961
1.09315
1.09016
1.08712
1.08405
1.08094
1.07778
1.07459
1.07136
1.06809
1.06478
1.06144
1.05806
1.05463
1.05118
1.04768
1.04415
1.04058
1.03698
1.03333
1.02966
1.02594
1.02219
1.0184
1.01458
1.01072
1.00682
1.00289
0.998924
0.99492
0.990881
0.986805
0.982693
0.978545
0.974361
0.970141
0.965885
0.961592
0.957263
0.952897
0.948494
0.944053
0.939575
0.93506
0.930507
0.925917
0.921288
0.916621
0.911915
0.907171
0.902389
0.897567
0.892706
0.887806
0.882867
0.877888
0.87287
0.867811
0.862712
0.857573
0.852393
0.847173
0.841911
0.836607
0.831262
0.825875
0.820446
0.814974
0.809459
0.803901
0.7983
0.792655
0.786966
0.781233
0.775455
0.769633
0.763765
0.757853
0.751895
0.745891
0.739841
0.733744
0.7276
0.721409
0.715171
0.708884
0.702549
0.696165
0.689731
0.683248
0.676714
0.670129
0.663494
0.656807
0.650068
0.643277
0.636433
0.629535
0.622585
0.61558
0.608521
0.601407
0.594238
0.587014
0.579734
0.572398
0.565005
0.557555
0.550049
0.542485
0.534864
0.527186
0.519451
0.511659
0.503811
0.495908
0.487952
0.479944
0.471887
0.463786
0.455643
0.447464
0.439252
0.430987
1.18052
1.1806
1.18066
1.18066
1.1806
1.18049
1.18033
1.1801
1.17981
1.17947
1.17906
1.17859
1.17805
1.17745
1.17678
1.17606
1.17526
1.1744
1.17348
1.17249
1.17143
1.17032
1.16914
1.16789
1.16659
1.16522
1.16379
1.1623
1.16076
1.15915
1.15749
1.15576
1.15399
1.15215
1.15026
1.14832
1.14633
1.14428
1.14218
1.14003
1.13783
1.13558
1.13328
1.13093
1.12853
1.12609
1.1236
1.12107
1.11849
1.11586
1.1132
1.11048
1.10773
1.10493
1.10209
1.09921
1.09629
1.09333
1.09033
1.08728
1.0842
1.08108
1.07792
1.07472
1.07148
1.06821
1.06489
1.06154
1.05815
1.05473
1.05126
1.04776
1.04423
1.04065
1.03704
1.0334
1.02971
1.026
1.02224
1.01845
1.01462
1.01076
1.00686
1.00293
0.998959
0.994953
0.990912
0.986834
0.98272
0.978571
0.974385
0.970164
0.965906
0.961612
0.957281
0.952914
0.948509
0.944068
0.939589
0.935073
0.930519
0.925928
0.921298
0.916631
0.911924
0.90718
0.902397
0.897574
0.892713
0.887813
0.882873
0.877894
0.872875
0.867816
0.862717
0.857578
0.852398
0.847177
0.841914
0.836611
0.831266
0.825878
0.820449
0.814977
0.809462
0.803904
0.798302
0.792657
0.786968
0.781235
0.775457
0.769635
0.763768
0.757855
0.751897
0.745893
0.739843
0.733746
0.727603
0.721412
0.715174
0.708887
0.702552
0.696167
0.689734
0.68325
0.676717
0.670132
0.663497
0.65681
0.650071
0.643279
0.636435
0.629538
0.622587
0.615582
0.608523
0.60141
0.594241
0.587016
0.579736
0.572399
0.565006
0.557556
0.550049
0.542485
0.534863
0.527184
0.519447
0.511654
0.503803
0.495897
0.487936
0.479922
0.471857
0.463744
0.455584
0.44738
0.439131
0.43082
1.18186
1.18194
1.182
1.182
1.18194
1.18183
1.18165
1.18142
1.18113
1.18077
1.18035
1.17986
1.17931
1.17869
1.17801
1.17726
1.17644
1.17555
1.1746
1.17359
1.17251
1.17136
1.17015
1.16888
1.16754
1.16614
1.16468
1.16317
1.16159
1.15995
1.15826
1.15651
1.1547
1.15284
1.15092
1.14895
1.14693
1.14485
1.14273
1.14055
1.13833
1.13605
1.13373
1.13136
1.12895
1.12649
1.12398
1.12143
1.11883
1.11619
1.1135
1.11078
1.10801
1.1052
1.10234
1.09945
1.09652
1.09354
1.09053
1.08747
1.08438
1.08125
1.07808
1.07487
1.07162
1.06834
1.06502
1.06166
1.05826
1.05483
1.05136
1.04786
1.04431
1.04073
1.03712
1.03347
1.02978
1.02606
1.0223
1.01851
1.01468
1.01081
1.00691
1.00297
0.999001
0.994992
0.990948
0.986868
0.982752
0.978601
0.974413
0.97019
0.965931
0.961635
0.957303
0.952934
0.948528
0.944086
0.939606
0.935089
0.930534
0.925941
0.921311
0.916642
0.911935
0.90719
0.902406
0.897583
0.892721
0.887821
0.88288
0.877901
0.872881
0.867822
0.862723
0.857583
0.852403
0.847181
0.841919
0.836615
0.83127
0.825882
0.820452
0.81498
0.809465
0.803907
0.798305
0.79266
0.786971
0.781238
0.77546
0.769638
0.763771
0.757858
0.7519
0.745896
0.739846
0.733749
0.727606
0.721415
0.715177
0.70889
0.702555
0.696171
0.689737
0.683254
0.67672
0.670135
0.6635
0.656813
0.650074
0.643282
0.636438
0.629541
0.62259
0.615585
0.608526
0.601412
0.594243
0.587019
0.579738
0.572401
0.565008
0.557557
0.55005
0.542485
0.534862
0.527182
0.519443
0.511648
0.503795
0.495885
0.487919
0.479899
0.471825
0.463699
0.455521
0.447293
0.43901
0.430657
1.1834
1.18349
1.18355
1.18355
1.18349
1.18337
1.1832
1.18296
1.18265
1.18228
1.18185
1.18134
1.18077
1.18013
1.17942
1.17865
1.1778
1.17689
1.1759
1.17486
1.17374
1.17256
1.17132
1.17001
1.16864
1.1672
1.16571
1.16415
1.16254
1.16087
1.15914
1.15735
1.15551
1.15362
1.15167
1.14967
1.14761
1.14551
1.14336
1.14115
1.1389
1.1366
1.13425
1.13186
1.12942
1.12694
1.12441
1.12183
1.11922
1.11656
1.11385
1.11111
1.10832
1.10549
1.10263
1.09972
1.09677
1.09378
1.09075
1.08769
1.08458
1.08144
1.07826
1.07504
1.07179
1.06849
1.06516
1.0618
1.05839
1.05495
1.05148
1.04796
1.04441
1.04083
1.03721
1.03355
1.02986
1.02613
1.02237
1.01857
1.01474
1.01087
1.00696
1.00302
0.999048
0.995037
0.99099
0.986907
0.982789
0.978635
0.974446
0.97022
0.965959
0.961661
0.957327
0.952957
0.94855
0.944106
0.939625
0.935106
0.93055
0.925956
0.921325
0.916655
0.911947
0.907201
0.902417
0.897593
0.892731
0.887829
0.882889
0.877909
0.872889
0.867829
0.862729
0.857589
0.852408
0.847187
0.841924
0.83662
0.831274
0.825887
0.820457
0.814984
0.809469
0.80391
0.798309
0.792663
0.786974
0.781241
0.775463
0.769641
0.763774
0.757861
0.751903
0.745899
0.739849
0.733753
0.727609
0.721419
0.71518
0.708894
0.702558
0.696174
0.689741
0.683257
0.676723
0.670139
0.663503
0.656816
0.650077
0.643286
0.636442
0.629544
0.622593
0.615589
0.608529
0.601415
0.594246
0.587021
0.579741
0.572403
0.56501
0.557559
0.550051
0.542485
0.534861
0.527179
0.519439
0.511641
0.503786
0.495872
0.487901
0.479874
0.47179
0.463651
0.455457
0.447205
0.43889
0.4305
1.18517
1.18525
1.18531
1.18532
1.18526
1.18514
1.18495
1.18471
1.18439
1.18401
1.18356
1.18303
1.18244
1.18177
1.18103
1.18023
1.17935
1.1784
1.17738
1.17629
1.17514
1.17392
1.17263
1.17128
1.16987
1.1684
1.16686
1.16526
1.16361
1.1619
1.16013
1.15831
1.15643
1.15449
1.15251
1.15047
1.14838
1.14625
1.14406
1.14183
1.13954
1.13721
1.13484
1.13242
1.12995
1.12744
1.12489
1.12229
1.11965
1.11697
1.11424
1.11148
1.10867
1.10583
1.10294
1.10002
1.09705
1.09405
1.09101
1.08793
1.08481
1.08166
1.07846
1.07523
1.07197
1.06866
1.06532
1.06195
1.05854
1.05509
1.0516
1.04808
1.04453
1.04094
1.03731
1.03365
1.02995
1.02622
1.02245
1.01865
1.01481
1.01093
1.00703
1.00308
0.999102
0.995087
0.991037
0.986951
0.98283
0.978674
0.974482
0.970254
0.965991
0.961691
0.957355
0.952983
0.948574
0.944128
0.939646
0.935126
0.930568
0.925973
0.921341
0.91667
0.911961
0.907214
0.902429
0.897605
0.892742
0.887839
0.882898
0.877917
0.872897
0.867837
0.862737
0.857596
0.852415
0.847193
0.84193
0.836626
0.83128
0.825892
0.820461
0.814989
0.809473
0.803915
0.798313
0.792667
0.786978
0.781245
0.775467
0.769645
0.763777
0.757865
0.751907
0.745903
0.739853
0.733757
0.727613
0.721423
0.715184
0.708898
0.702563
0.696178
0.689745
0.683261
0.676728
0.670143
0.663507
0.65682
0.650081
0.64329
0.636446
0.629548
0.622597
0.615592
0.608533
0.601419
0.594249
0.587024
0.579743
0.572406
0.565012
0.55756
0.550052
0.542485
0.53486
0.527177
0.519435
0.511635
0.503776
0.495858
0.487882
0.479848
0.471755
0.463603
0.455392
0.447117
0.438774
0.430349
1.18715
1.18724
1.18731
1.18731
1.18725
1.18713
1.18694
1.18668
1.18635
1.18596
1.18548
1.18494
1.18431
1.18362
1.18285
1.182
1.18108
1.1801
1.17903
1.1779
1.1767
1.17544
1.17411
1.17271
1.17125
1.16973
1.16814
1.1665
1.1648
1.16304
1.16123
1.15936
1.15744
1.15546
1.15344
1.15136
1.14924
1.14706
1.14484
1.14257
1.14025
1.13789
1.13548
1.13303
1.13054
1.128
1.12542
1.12279
1.12013
1.11742
1.11468
1.11189
1.10906
1.1062
1.10329
1.10035
1.09737
1.09435
1.09129
1.08819
1.08506
1.08189
1.07869
1.07545
1.07217
1.06885
1.0655
1.06212
1.05869
1.05524
1.05174
1.04822
1.04465
1.04105
1.03742
1.03375
1.03005
1.02631
1.02254
1.01873
1.01488
1.01101
1.00709
1.00314
0.99916
0.995142
0.991088
0.987
0.982876
0.978716
0.974522
0.970292
0.966026
0.961724
0.957386
0.953012
0.948601
0.944153
0.939669
0.935148
0.930589
0.925992
0.921359
0.916687
0.911977
0.907229
0.902442
0.897617
0.892753
0.887851
0.882909
0.877927
0.872906
0.867846
0.862745
0.857604
0.852423
0.8472
0.841937
0.836632
0.831286
0.825897
0.820467
0.814994
0.809478
0.803919
0.798317
0.792672
0.786982
0.781249
0.775471
0.769649
0.763782
0.757869
0.751911
0.745908
0.739858
0.733761
0.727618
0.721427
0.715189
0.708902
0.702567
0.696183
0.689749
0.683266
0.676732
0.670148
0.663512
0.656825
0.650086
0.643294
0.63645
0.629552
0.622601
0.615596
0.608537
0.601423
0.594253
0.587028
0.579747
0.572409
0.565014
0.557562
0.550053
0.542485
0.534859
0.527175
0.519431
0.511628
0.503766
0.495844
0.487863
0.479821
0.471719
0.463555
0.455327
0.447032
0.438662
0.430207
1.18936
1.18946
1.18953
1.18953
1.18948
1.18935
1.18916
1.18889
1.18855
1.18813
1.18764
1.18706
1.18641
1.18568
1.18487
1.18398
1.18302
1.18198
1.18087
1.17969
1.17843
1.17711
1.17573
1.17428
1.17276
1.17119
1.16955
1.16785
1.1661
1.16429
1.16243
1.16051
1.15854
1.15652
1.15445
1.15233
1.15016
1.14795
1.14568
1.14337
1.14102
1.13862
1.13618
1.1337
1.13117
1.1286
1.12599
1.12334
1.12065
1.11792
1.11514
1.11233
1.10948
1.1066
1.10367
1.10071
1.09771
1.09467
1.09159
1.08848
1.08534
1.08215
1.07893
1.07568
1.07238
1.06906
1.0657
1.0623
1.05887
1.0554
1.0519
1.04836
1.04479
1.04118
1.03754
1.03386
1.03015
1.02641
1.02263
1.01881
1.01497
1.01108
1.00716
1.00321
0.999225
0.995202
0.991145
0.987053
0.982925
0.978763
0.974565
0.970332
0.966064
0.96176
0.957419
0.953043
0.94863
0.944181
0.939695
0.935171
0.930611
0.926013
0.921378
0.916705
0.911994
0.907245
0.902457
0.897631
0.892766
0.887863
0.88292
0.877938
0.872917
0.867855
0.862754
0.857613
0.852431
0.847208
0.841944
0.836639
0.831292
0.825904
0.820473
0.814999
0.809483
0.803924
0.798322
0.792677
0.786987
0.781254
0.775476
0.769653
0.763786
0.757874
0.751916
0.745912
0.739862
0.733766
0.727623
0.721432
0.715194
0.708907
0.702572
0.696188
0.689754
0.683271
0.676737
0.670152
0.663517
0.65683
0.65009
0.643299
0.636455
0.629557
0.622606
0.615601
0.608541
0.601427
0.594257
0.587032
0.57975
0.572412
0.565017
0.557565
0.550054
0.542486
0.534859
0.527173
0.519427
0.511622
0.503757
0.495831
0.487843
0.479795
0.471683
0.463507
0.455264
0.446949
0.438555
0.430072
1.19181
1.19191
1.19199
1.192
1.19194
1.19181
1.19162
1.19134
1.19098
1.19055
1.19002
1.18942
1.18873
1.18795
1.1871
1.18616
1.18515
1.18405
1.18288
1.18164
1.18033
1.17895
1.1775
1.17599
1.17441
1.17278
1.17108
1.16932
1.16751
1.16565
1.16373
1.16176
1.15974
1.15767
1.15554
1.15338
1.15116
1.1489
1.14659
1.14424
1.14185
1.13941
1.13693
1.13441
1.13185
1.12925
1.12661
1.12393
1.1212
1.11845
1.11565
1.11281
1.10994
1.10703
1.10408
1.10109
1.09807
1.09502
1.09192
1.08879
1.08563
1.08243
1.07919
1.07592
1.07262
1.06928
1.0659
1.06249
1.05905
1.05557
1.05206
1.04851
1.04493
1.04132
1.03767
1.03399
1.03027
1.02652
1.02273
1.01891
1.01506
1.01117
1.00724
1.00329
0.999294
0.995267
0.991206
0.98711
0.982979
0.978813
0.974612
0.970377
0.966105
0.961798
0.957456
0.953077
0.948662
0.94421
0.939722
0.935197
0.930635
0.926036
0.921399
0.916724
0.912012
0.907262
0.902473
0.897646
0.892781
0.887876
0.882933
0.87795
0.872928
0.867866
0.862764
0.857622
0.85244
0.847216
0.841952
0.836646
0.831299
0.82591
0.820479
0.815006
0.809489
0.80393
0.798328
0.792682
0.786992
0.781259
0.775481
0.769659
0.763791
0.757879
0.751921
0.745917
0.739868
0.733771
0.727628
0.721437
0.715199
0.708913
0.702577
0.696193
0.68976
0.683276
0.676742
0.670158
0.663522
0.656835
0.650096
0.643304
0.63646
0.629562
0.622611
0.615606
0.608546
0.601432
0.594262
0.587036
0.579754
0.572416
0.56502
0.557567
0.550056
0.542487
0.534859
0.527171
0.519424
0.511616
0.503747
0.495817
0.487824
0.479769
0.471648
0.46346
0.455203
0.44687
0.438454
0.429947
1.19449
1.1946
1.19468
1.1947
1.19465
1.19453
1.19433
1.19405
1.19367
1.19321
1.19266
1.19202
1.19128
1.19046
1.18955
1.18855
1.18747
1.18632
1.18508
1.18377
1.18239
1.18094
1.17942
1.17784
1.17619
1.17449
1.17273
1.17091
1.16903
1.1671
1.16512
1.1631
1.16102
1.15889
1.15671
1.15449
1.15223
1.14992
1.14757
1.14517
1.14273
1.14026
1.13774
1.13518
1.13258
1.12994
1.12727
1.12455
1.1218
1.11901
1.11618
1.11332
1.11042
1.10748
1.10451
1.10151
1.09846
1.09538
1.09227
1.08912
1.08594
1.08272
1.07947
1.07619
1.07287
1.06951
1.06613
1.0627
1.05925
1.05576
1.05224
1.04868
1.04509
1.04146
1.03781
1.03411
1.03039
1.02663
1.02284
1.01901
1.01515
1.01126
1.00733
1.00336
0.999367
0.995336
0.991271
0.987171
0.983036
0.978867
0.974663
0.970424
0.966149
0.96184
0.957494
0.953113
0.948696
0.944242
0.939752
0.935225
0.930661
0.92606
0.921421
0.916745
0.912032
0.90728
0.90249
0.897662
0.892796
0.88789
0.882946
0.877963
0.87294
0.867877
0.862775
0.857632
0.852449
0.847225
0.841961
0.836655
0.831307
0.825918
0.820486
0.815012
0.809496
0.803936
0.798334
0.792688
0.786998
0.781264
0.775487
0.769664
0.763797
0.757885
0.751927
0.745923
0.739873
0.733777
0.727634
0.721443
0.715205
0.708918
0.702583
0.696199
0.689766
0.683282
0.676748
0.670164
0.663528
0.656841
0.650101
0.64331
0.636465
0.629568
0.622616
0.615611
0.608551
0.601437
0.594267
0.587041
0.579759
0.57242
0.565024
0.55757
0.550059
0.542488
0.534859
0.52717
0.51942
0.51161
0.503738
0.495804
0.487806
0.479744
0.471614
0.463416
0.455144
0.446795
0.43836
0.42983
1.1975
1.19762
1.19772
1.19775
1.19772
1.1976
1.1974
1.19711
1.19673
1.19624
1.19565
1.19496
1.19417
1.19329
1.19231
1.19124
1.19009
1.18885
1.18753
1.18614
1.18468
1.18315
1.18155
1.17988
1.17816
1.17638
1.17454
1.17264
1.1707
1.1687
1.16665
1.16456
1.16241
1.16022
1.15799
1.15571
1.15339
1.15103
1.14863
1.14618
1.1437
1.14117
1.13861
1.13601
1.13337
1.13069
1.12798
1.12523
1.12244
1.11962
1.11676
1.11387
1.11094
1.10798
1.10498
1.10195
1.09888
1.09578
1.09265
1.08948
1.08628
1.08304
1.07978
1.07647
1.07314
1.06977
1.06637
1.06293
1.05946
1.05596
1.05243
1.04886
1.04526
1.04162
1.03796
1.03426
1.03052
1.02675
1.02295
1.01912
1.01525
1.01135
1.00742
1.00345
0.999448
0.995412
0.991341
0.987237
0.983099
0.978925
0.974718
0.970475
0.966198
0.961885
0.957537
0.953153
0.948733
0.944277
0.939784
0.935255
0.930689
0.926086
0.921446
0.916769
0.912053
0.9073
0.902509
0.89768
0.892813
0.887906
0.882961
0.877977
0.872953
0.86789
0.862787
0.857643
0.85246
0.847236
0.84197
0.836664
0.831316
0.825926
0.820494
0.81502
0.809503
0.803943
0.798341
0.792694
0.787005
0.781271
0.775493
0.769671
0.763803
0.757891
0.751933
0.74593
0.73988
0.733784
0.727641
0.72145
0.715212
0.708925
0.70259
0.696206
0.689772
0.683289
0.676755
0.67017
0.663535
0.656847
0.650108
0.643316
0.636472
0.629574
0.622623
0.615617
0.608558
0.601443
0.594272
0.587046
0.579764
0.572425
0.565029
0.557574
0.550062
0.542491
0.53486
0.52717
0.519418
0.511606
0.503731
0.495793
0.48779
0.479721
0.471583
0.463374
0.45509
0.446726
0.438272
0.429723
1.20067
1.20081
1.20093
1.201
1.20099
1.2009
1.20071
1.20042
1.20002
1.1995
1.19887
1.19813
1.19727
1.19632
1.19526
1.19411
1.19286
1.19154
1.19013
1.18864
1.18709
1.18546
1.18377
1.18202
1.18021
1.17835
1.17642
1.17445
1.17243
1.17035
1.16823
1.16607
1.16386
1.1616
1.15931
1.15697
1.15459
1.15217
1.14972
1.14722
1.14469
1.14212
1.13951
1.13686
1.13418
1.13147
1.12871
1.12593
1.12311
1.12025
1.11736
1.11444
1.11148
1.10849
1.10547
1.10241
1.09932
1.0962
1.09304
1.08985
1.08663
1.08337
1.08009
1.07677
1.07342
1.07003
1.06661
1.06316
1.05968
1.05617
1.05262
1.04904
1.04543
1.04179
1.03811
1.0344
1.03066
1.02688
1.02307
1.01923
1.01536
1.01145
1.00751
1.00354
0.99953
0.995489
0.991414
0.987306
0.983163
0.978986
0.974774
0.970528
0.966247
0.961931
0.95758