/*--------------------------------*- C++ -*----------------------------------*\
  =========                 |
  \\      /  F ield         | OpenFOAM: The Open Source CFD Toolbox
   \\    /   O peration     | Website:  https://openfoam.org
    \\  /    A nd           | Version:  8
     \\/     M anipulation  |
\*---------------------------------------------------------------------------*/
FoamFile
{
    version     2.0;
    format      ascii;
    class       surfaceScalarField;
    location    "0.04";
    object      phi;
}
// * * * * * * * * * * * * * * * * * * * * * * * * * * * * * * * * * * * * * //

dimensions      [0 3 -1 0 0 0 0];

internalField   nonuniform List<scalar> 
24170
(
1.582e-08
3.69273e-08
9.25814e-09
6.56184e-09
7.77562e-09
1.48252e-09
7.29915e-09
4.76478e-10
7.11632e-09
1.82823e-10
7.06552e-09
5.0798e-11
7.08604e-09
-2.05133e-11
7.15472e-09
-6.86809e-11
7.26471e-09
-1.09995e-10
7.41762e-09
-1.52911e-10
7.62178e-09
-2.04158e-10
7.89361e-09
-2.71825e-10
8.26286e-09
-3.69253e-10
8.78717e-09
-5.2431e-10
9.60114e-09
-8.13964e-10
1.10846e-08
-1.48346e-09
1.45392e-08
-3.4546e-09
-1.60319e-08
3.0571e-08
3.6781e-08
5.66795e-08
2.62828e-08
1.706e-08
2.23774e-08
5.38797e-09
2.09571e-08
1.89679e-09
2.04121e-08
7.27746e-10
2.0244e-08
2.18899e-10
2.02847e-08
-6.11301e-11
2.04655e-08
-2.49544e-10
2.07643e-08
-4.08823e-10
2.11837e-08
-5.72243e-10
2.1745e-08
-7.65462e-10
2.24917e-08
-1.0185e-09
2.35018e-08
-1.37936e-09
2.49208e-08
-1.94332e-09
2.70447e-08
-2.93794e-09
3.05575e-08
-4.99627e-09
3.72301e-08
-1.01271e-08
-2.76537e-08
4.8852e-08
5.21795e-08
6.50907e-08
4.19743e-08
2.72652e-08
3.66165e-08
1.07457e-08
3.43616e-08
4.1517e-09
3.3463e-08
1.62639e-09
3.31669e-08
5.14964e-10
3.32091e-08
-1.03287e-10
3.34791e-08
-5.19586e-10
3.39381e-08
-8.67825e-10
3.45868e-08
-1.22092e-09
3.54551e-08
-1.63376e-09
3.66051e-08
-2.16846e-09
3.81463e-08
-2.9206e-09
4.02722e-08
-4.06917e-09
4.33339e-08
-5.99969e-09
4.79844e-08
-9.64674e-09
5.52209e-08
-1.73637e-08
-3.57694e-08
6.33365e-08
6.41663e-08
6.58639e-08
5.58968e-08
3.55348e-08
5.02014e-08
1.64411e-08
4.73684e-08
6.98466e-09
4.61563e-08
2.83851e-09
4.57339e-08
9.3739e-10
4.57644e-08
-1.33821e-10
4.61031e-08
-8.58326e-10
4.66949e-08
-1.45957e-09
4.75359e-08
-2.06191e-09
4.86591e-08
-2.75699e-09
5.0135e-08
-3.64434e-09
5.20837e-08
-4.86933e-09
5.47007e-08
-6.68612e-09
5.82899e-08
-9.58898e-09
6.32535e-08
-1.46102e-08
6.97337e-08
-2.38439e-08
-4.11563e-08
7.51207e-08
7.36342e-08
6.18302e-08
6.80596e-08
4.11093e-08
6.28793e-08
2.16214e-08
5.98154e-08
1.00485e-08
5.83774e-08
4.27653e-09
5.7847e-08
1.46778e-09
5.786e-08
-1.46821e-10
5.82495e-08
-1.24783e-09
5.89465e-08
-2.15659e-09
5.99405e-08
-3.05589e-09
6.12617e-08
-4.07813e-09
6.29773e-08
-5.35995e-09
6.51965e-08
-7.0886e-09
6.80765e-08
-9.56607e-09
7.18071e-08
-1.33196e-08
7.6491e-08
-1.92941e-08
8.16871e-08
-2.904e-08
-4.43694e-08
8.49001e-08
8.12652e-08
5.51609e-08
7.85174e-08
4.38572e-08
7.44476e-08
2.56912e-08
7.15308e-08
1.29653e-08
7.00055e-08
5.80189e-09
6.94097e-08
2.06354e-09
6.941e-08
-1.47166e-10
6.98359e-08
-1.67373e-09
7.06099e-08
-2.93057e-09
7.17135e-08
-4.15946e-09
7.31683e-08
-5.53297e-09
7.50278e-08
-7.21947e-09
7.73719e-08
-9.4327e-09
8.02931e-08
-1.24872e-08
8.38452e-08
-1.68717e-08
8.78837e-08
-2.33326e-08
9.168e-08
-3.28363e-08
-4.5897e-08
9.32076e-08
8.76859e-08
4.7425e-08
8.74762e-08
4.40668e-08
8.48407e-08
2.83268e-08
8.24087e-08
1.53973e-08
8.09662e-08
7.24438e-09
8.03718e-08
2.65798e-09
8.03776e-08
-1.53005e-10
8.08317e-08
-2.12776e-09
8.1656e-08
-3.75488e-09
8.28245e-08
-5.32801e-09
8.43461e-08
-7.05458e-09
8.6252e-08
-9.12529e-09
8.85812e-08
-1.1762e-08
9.13526e-08
-1.52586e-08
9.44975e-08
-2.00165e-08
9.77116e-08
-2.65467e-08
1.00202e-07
-3.53269e-08
-4.61623e-08
1.00468e-07
9.345e-08
3.96632e-08
9.5259e-08
4.22578e-08
9.41339e-08
2.94518e-08
9.24316e-08
1.70997e-08
9.1244e-08
8.43195e-09
9.07344e-08
3.16758e-09
9.07768e-08
-1.95365e-10
9.12583e-08
-2.60929e-09
9.21101e-08
-4.60665e-09
9.33007e-08
-6.5186e-09
9.48239e-08
-8.57783e-09
9.66843e-08
-1.09857e-08
9.88768e-08
-1.39545e-08
1.01352e-07
-1.77339e-08
1.03951e-07
-2.26159e-08
1.06298e-07
-2.88929e-08
1.07667e-07
-3.66963e-08
-4.55116e-08
1.07016e-07
9.90122e-08
3.24895e-08
1.02247e-07
3.90231e-08
1.0252e-07
2.9179e-08
1.01676e-07
1.79432e-08
1.00888e-07
9.22036e-09
1.00551e-07
3.50483e-09
1.00669e-07
-3.14167e-10
1.01185e-07
-3.12495e-09
1.02046e-07
-5.46799e-09
1.0322e-07
-7.69241e-09
1.04686e-07
-1.00434e-08
1.06421e-07
-1.27206e-08
1.0838e-07
-1.59136e-08
1.10461e-07
-1.9815e-08
1.12454e-07
-2.46086e-08
1.13975e-07
-3.04142e-08
1.1443e-07
-3.71519e-08
-4.42164e-08
1.13135e-07
1.04718e-07
2.62019e-08
1.08813e-07
3.49271e-08
1.10258e-07
2.77343e-08
1.10295e-07
1.79066e-08
1.10002e-07
9.51322e-09
1.09914e-07
3.59241e-09
1.10152e-07
-5.51616e-10
1.10713e-07
-3.68629e-09
1.11571e-07
-6.32598e-09
1.12695e-07
-8.81623e-09
1.14052e-07
-1.14004e-08
1.15597e-07
-1.42659e-08
1.17254e-07
-1.75705e-08
1.18888e-07
-2.14485e-08
1.20271e-07
-2.59918e-08
1.21058e-07
-3.1201e-08
1.20797e-07
-3.68907e-08
-4.24847e-08
1.19065e-07
1.10734e-07
2.09628e-08
1.15262e-07
3.03985e-08
1.17626e-07
2.53701e-08
1.18477e-07
1.70557e-08
1.18723e-07
9.26769e-09
1.18942e-07
3.37333e-09
1.19335e-07
-9.44766e-10
1.19955e-07
-4.30597e-09
1.208e-07
-7.17142e-09
1.21847e-07
-9.86285e-09
1.23055e-07
-1.26083e-08
1.24363e-07
-1.55743e-08
1.25676e-07
-1.88838e-08
1.26846e-07
-2.26185e-08
1.27657e-07
-2.68019e-08
1.2782e-07
-3.13642e-08
1.27016e-07
-3.60871e-08
-4.04798e-08
1.25011e-07
9.84098e-08
1.75263e-08
1.02553e-07
2.62558e-08
1.05132e-07
2.27907e-08
1.06355e-07
1.5833e-08
1.06968e-07
8.6539e-09
1.07413e-07
2.92894e-09
1.07883e-07
-1.41466e-09
1.08458e-07
-4.88113e-09
1.09157e-07
-7.87026e-09
1.09965e-07
-1.06711e-08
1.10847e-07
-1.34905e-08
1.11746e-07
-1.64727e-08
1.12574e-07
-1.97123e-08
1.1321e-07
-2.32546e-08
1.13492e-07
-2.70837e-08
1.13228e-07
-3.11003e-08
1.12234e-07
-3.50927e-08
-3.8635e-08
1.10389e-07
1.19223e-07
1.40775e-08
1.23743e-07
2.17358e-08
1.27073e-07
1.94606e-08
1.29033e-07
1.38731e-08
1.30176e-07
7.50998e-09
1.30981e-07
2.1239e-09
1.31689e-07
-2.12187e-09
1.32412e-07
-5.60421e-09
1.33191e-07
-8.64943e-09
1.34019e-07
-1.14995e-08
1.34858e-07
-1.43295e-08
1.35641e-07
-1.72557e-08
1.36272e-07
-2.03427e-08
1.36622e-07
-2.36045e-08
1.36537e-07
-2.69985e-08
1.35852e-07
-3.04161e-08
1.3443e-07
-3.36706e-08
-3.6411e-08
1.32206e-07
1.44631e-07
1.05761e-08
1.4948e-07
1.68873e-08
1.53542e-07
1.53988e-08
1.56335e-07
1.10801e-08
1.58136e-07
5.70823e-09
1.59404e-07
8.55822e-10
1.60415e-07
-3.13294e-09
1.61312e-07
-6.50089e-09
1.62157e-07
-9.4946e-09
1.62956e-07
-1.22979e-08
1.63671e-07
-1.50447e-08
1.64234e-07
-1.78186e-08
1.64547e-07
-2.06561e-08
1.64491e-07
-2.35482e-08
1.63933e-07
-2.64406e-08
1.6275e-07
-2.92328e-08
1.60854e-07
-3.17745e-08
-3.37928e-08
1.58235e-07
1.75476e-07
7.13886e-09
1.80653e-07
1.17102e-08
1.85411e-07
1.06417e-08
1.89061e-07
7.42923e-09
1.91608e-07
3.16147e-09
1.93418e-07
-9.54391e-10
1.94781e-07
-4.49571e-09
1.9586e-07
-7.57979e-09
1.96738e-07
-1.03725e-08
1.97435e-07
-1.29955e-08
1.97927e-07
-1.55359e-08
1.98152e-07
-1.80437e-08
1.98027e-07
-2.05314e-08
1.97455e-07
-2.29766e-08
1.96341e-07
-2.5326e-08
1.94607e-07
-2.74987e-08
1.92217e-07
-2.93846e-08
-3.07823e-08
1.89206e-07
2.12998e-07
3.85888e-09
2.18453e-07
6.25517e-09
2.23826e-07
5.26915e-09
2.28278e-07
2.97678e-09
2.3158e-07
-1.40165e-10
2.33954e-07
-3.32889e-09
2.35671e-07
-6.21221e-09
2.36904e-07
-8.81332e-09
2.37754e-07
-1.12222e-08
2.38261e-07
-1.3502e-08
2.38419e-07
-1.56941e-08
2.38192e-07
-1.78168e-08
2.37524e-07
-1.9864e-08
2.36356e-07
-2.18083e-08
2.34635e-07
-2.36048e-08
2.32332e-07
-2.51959e-08
2.29455e-07
-2.65075e-08
-2.73982e-08
2.26071e-07
2.58763e-07
7.45132e-10
2.64458e-07
5.60571e-10
2.70349e-07
-6.2216e-10
2.75473e-07
-2.14786e-09
2.79434e-07
-4.10098e-09
2.82301e-07
-6.19582e-09
2.84294e-07
-8.20536e-09
2.85592e-07
-1.01104e-08
2.86308e-07
-1.19388e-08
2.8651e-07
-1.37035e-08
2.86221e-07
-1.54056e-08
2.85441e-07
-1.70363e-08
2.84152e-07
-1.85759e-08
2.8234e-07
-1.99954e-08
2.79995e-07
-2.12602e-08
2.77131e-07
-2.23323e-08
2.73789e-07
-2.31649e-08
-2.36627e-08
2.70053e-07
3.14755e-07
-2.3697e-09
3.20792e-07
-5.47624e-09
3.2718e-07
-7.01091e-09
3.32843e-07
-7.81041e-09
3.37278e-07
-8.53581e-09
3.4044e-07
-9.35791e-09
3.42509e-07
-1.02751e-08
3.43675e-07
-1.12758e-08
3.44076e-07
-1.23398e-08
3.43809e-07
-1.3437e-08
3.42938e-07
-1.45342e-08
3.415e-07
-1.55988e-08
3.39523e-07
-1.65987e-08
3.37031e-07
-1.75033e-08
3.34055e-07
-1.82842e-08
3.30638e-07
-1.89154e-08
3.2684e-07
-1.93673e-08
-1.95787e-08
3.22756e-07
3.83603e-07
-6.07939e-09
3.90465e-07
-1.2338e-08
3.97592e-07
-1.4138e-08
4.03778e-07
-1.39965e-08
4.08426e-07
-1.31835e-08
4.11497e-07
-1.24292e-08
4.13231e-07
-1.20093e-08
4.13875e-07
-1.19197e-08
4.13617e-07
-1.20822e-08
4.12598e-07
-1.24178e-08
4.10921e-07
-1.28565e-08
4.08661e-07
-1.33393e-08
4.05881e-07
-1.3819e-08
4.02637e-07
-1.42586e-08
3.98982e-07
-1.463e-08
3.94979e-07
-1.49117e-08
3.90695e-07
-1.5083e-08
-1.51094e-08
3.86225e-07
2.81188e-07
-9.16049e-09
2.869e-07
-1.8049e-08
2.92307e-07
-1.95451e-08
2.96434e-07
-1.81238e-08
2.99137e-07
-1.58863e-08
3.00595e-07
-1.38879e-08
3.01084e-07
-1.24982e-08
3.00836e-07
-1.1671e-08
3.00014e-07
-1.12607e-08
2.98733e-07
-1.11367e-08
2.97071e-07
-1.11949e-08
2.95087e-07
-1.13546e-08
2.92824e-07
-1.15564e-08
2.90323e-07
-1.17575e-08
2.87621e-07
-1.19277e-08
2.84755e-07
-1.20461e-08
2.81767e-07
-1.20951e-08
-1.20529e-08
2.78711e-07
2.4589e-07
-1.29438e-08
2.51963e-07
-2.41218e-08
2.56933e-07
-2.45156e-08
2.60122e-07
-2.13129e-08
2.61731e-07
-1.74948e-08
2.62181e-07
-1.43378e-08
2.6185e-07
-1.21678e-08
2.60989e-07
-1.08098e-08
2.59748e-07
-1.0019e-08
2.58216e-07
-9.60543e-09
2.56452e-07
-9.43056e-09
2.54493e-07
-9.39545e-09
2.52368e-07
-9.43176e-09
2.50104e-07
-9.49306e-09
2.47724e-07
-9.54809e-09
2.45254e-07
-9.57636e-09
2.42722e-07
-9.56261e-09
-9.49437e-09
2.40163e-07
2.15896e-07
-1.80734e-08
2.22529e-07
-3.0755e-08
2.26866e-07
-2.8853e-08
2.28907e-07
-2.33534e-08
2.29313e-07
-1.79017e-08
2.28759e-07
-1.37837e-08
2.27692e-07
-1.11001e-08
2.26336e-07
-9.45388e-09
2.24797e-07
-8.48049e-09
2.23126e-07
-7.9343e-09
2.21346e-07
-7.65077e-09
2.19471e-07
-7.52075e-09
2.17513e-07
-7.47323e-09
2.15482e-07
-7.46211e-09
2.13391e-07
-7.4575e-09
2.11256e-07
-7.44056e-09
2.09091e-07
-7.39849e-09
-7.32719e-09
2.06924e-07
1.90518e-07
-2.5109e-08
1.97381e-07
-3.76178e-08
2.00492e-07
-3.19645e-08
2.00991e-07
-2.38514e-08
2.00065e-07
-1.69766e-08
1.98566e-07
-1.22848e-08
1.96904e-07
-9.43793e-09
1.95212e-07
-7.76142e-09
1.93519e-07
-6.7878e-09
1.91823e-07
-6.23804e-09
1.90111e-07
-5.93934e-09
1.88375e-07
-5.78468e-09
1.8661e-07
-5.70791e-09
1.84816e-07
-5.6677e-09
1.82996e-07
-5.63794e-09
1.81158e-07
-5.60258e-09
1.79311e-07
-5.55147e-09
-5.4882e-09
1.77472e-07
1.68947e-07
-3.4325e-08
1.74975e-07
-4.36458e-08
1.75968e-07
-3.29583e-08
1.74553e-07
-2.24364e-08
1.72316e-07
-1.47388e-08
1.70074e-07
-1.00429e-08
1.68047e-07
-7.41112e-09
1.66217e-07
-5.93123e-09
1.64524e-07
-5.0952e-09
1.62915e-07
-4.62861e-09
1.61348e-07
-4.37273e-09
1.59798e-07
-4.23502e-09
1.58251e-07
-4.16065e-09
1.567e-07
-4.11624e-09
1.55143e-07
-4.08103e-09
1.53583e-07
-4.04234e-09
1.52024e-07
-3.9924e-09
-3.94125e-09
1.50477e-07
1.4994e-07
-4.52114e-08
1.5338e-07
-4.70856e-08
1.51413e-07
-3.09909e-08
1.48019e-07
-1.90428e-08
1.44777e-07
-1.14965e-08
1.42153e-07
-7.41972e-09
1.4005e-07
-5.30776e-09
1.38288e-07
-4.16915e-09
1.36736e-07
-3.54355e-09
1.35308e-07
-3.19976e-09
1.33946e-07
-3.01146e-09
1.3262e-07
-2.90859e-09
1.3131e-07
-2.85088e-09
1.30008e-07
-2.81416e-09
1.2871e-07
-2.78339e-09
1.27417e-07
-2.74922e-09
1.2613e-07
-2.70554e-09
-2.66666e-09
1.24856e-07
1.31753e-07
-5.59108e-08
1.30618e-07
-4.59512e-08
1.25406e-07
-2.57787e-08
1.20504e-07
-1.41411e-08
1.16853e-07
-7.84543e-09
1.14284e-07
-4.85027e-09
1.12376e-07
-3.39952e-09
1.10848e-07
-2.64198e-09
1.0954e-07
-2.23553e-09
1.08356e-07
-2.01519e-09
1.07239e-07
-1.89493e-09
1.0616e-07
-1.82881e-09
1.051e-07
-1.79085e-09
1.04051e-07
-1.76554e-09
1.03011e-07
-1.74309e-09
1.01978e-07
-1.71701e-09
1.00955e-07
-1.68211e-09
-1.65368e-09
9.9942e-08
1.12332e-07
-6.28601e-08
1.05269e-07
-3.88877e-08
9.75165e-08
-1.80264e-08
9.21044e-08
-8.72893e-09
8.87435e-08
-4.48454e-09
8.6593e-08
-2.69976e-09
8.50657e-08
-1.87223e-09
8.38726e-08
-1.44892e-09
8.28632e-08
-1.2261e-09
8.19545e-08
-1.1065e-09
8.1101e-08
-1.04143e-09
8.02777e-08
-1.00554e-09
7.94714e-08
-9.84573e-10
7.86759e-08
-9.6999e-10
7.78891e-08
-9.56249e-10
7.71113e-08
-9.39299e-10
7.63437e-08
-9.14476e-10
-8.93684e-10
7.55837e-08
8.96976e-08
-6.08165e-08
7.69886e-08
-2.61787e-08
6.84695e-08
-9.50733e-09
6.37599e-08
-4.01933e-09
6.12276e-08
-1.95218e-09
5.96933e-08
-1.16556e-09
5.86261e-08
-8.04942e-10
5.78003e-08
-6.23174e-10
5.71032e-08
-5.28978e-10
5.64754e-08
-4.78717e-10
5.58854e-08
-4.51428e-10
5.53162e-08
-4.36336e-10
5.4759e-08
-4.27375e-10
5.42099e-08
-4.20882e-10
5.3668e-08
-4.14366e-10
5.31345e-08
-4.05811e-10
5.26115e-08
-3.91449e-10
-3.75033e-10
5.20929e-08
6.20893e-08
-4.30404e-08
4.65114e-08
-1.06008e-08
3.97634e-08
-2.75928e-09
3.67379e-08
-9.93872e-10
3.52583e-08
-4.72536e-10
3.43772e-08
-2.84491e-10
3.37686e-08
-1.96373e-10
3.32983e-08
-1.52806e-10
3.28998e-08
-1.30534e-10
3.25398e-08
-1.18669e-10
3.22006e-08
-1.12231e-10
3.18729e-08
-1.08663e-10
3.15521e-08
-1.06514e-10
3.12361e-08
-1.04904e-10
3.09249e-08
-1.03189e-10
3.06199e-08
-1.00829e-10
3.03244e-08
-9.59363e-11
-8.63521e-11
3.00357e-08
2.64864e-08
1.58856e-08
1.31263e-08
1.21324e-08
1.16599e-08
1.13754e-08
1.1179e-08
1.10262e-08
1.08957e-08
1.0777e-08
1.06648e-08
1.05561e-08
1.04496e-08
1.03447e-08
1.02415e-08
1.01407e-08
1.00448e-08
9.9584e-09
9.94163e-11
-9.94163e-11
4.08461e-10
-3.09045e-10
8.94913e-10
-4.86451e-10
1.51352e-09
-6.18607e-10
2.22556e-09
-7.12042e-10
3.00103e-09
-7.75467e-10
3.81779e-09
-8.16765e-10
4.66012e-09
-8.42321e-10
5.51708e-09
-8.56964e-10
6.38123e-09
-8.64146e-10
7.24745e-09
-8.66226e-10
8.11221e-09
-8.64754e-10
8.97292e-09
-8.6072e-10
9.82766e-09
-8.54735e-10
1.06748e-08
-8.47174e-10
1.15131e-08
-8.38264e-10
1.23413e-08
-8.28152e-10
1.31582e-08
-8.16936e-10
1.39629e-08
-8.04693e-10
1.47544e-08
-7.91492e-10
1.55318e-08
-7.774e-10
1.62943e-08
-7.62484e-10
1.70411e-08
-7.46814e-10
1.77715e-08
-7.30464e-10
1.8485e-08
-7.13506e-10
1.91811e-08
-6.96018e-10
1.98591e-08
-6.78074e-10
2.05189e-08
-6.59748e-10
2.116e-08
-6.41115e-10
2.17822e-08
-6.22244e-10
2.23854e-08
-6.03204e-10
2.29695e-08
-5.8406e-10
2.35344e-08
-5.64873e-10
2.40801e-08
-5.457e-10
2.46067e-08
-5.26596e-10
2.51143e-08
-5.07608e-10
2.56031e-08
-4.88783e-10
2.60732e-08
-4.7016e-10
2.6525e-08
-4.51777e-10
2.69587e-08
-4.33667e-10
2.73745e-08
-4.15859e-10
2.77729e-08
-3.98376e-10
2.81541e-08
-3.81242e-10
2.85186e-08
-3.64475e-10
2.88667e-08
-3.4809e-10
2.91988e-08
-3.321e-10
2.95153e-08
-3.16514e-10
2.98167e-08
-3.0134e-10
3.01032e-08
-2.86583e-10
3.03755e-08
-2.72248e-10
3.06338e-08
-2.58334e-10
3.08787e-08
-2.44841e-10
3.11104e-08
-2.31769e-10
3.13296e-08
-2.19115e-10
3.15364e-08
-2.06873e-10
3.17315e-08
-1.95039e-10
3.19151e-08
-1.83609e-10
3.20876e-08
-1.72573e-10
3.22496e-08
-1.61927e-10
3.24012e-08
-1.51661e-10
3.2543e-08
-1.41768e-10
3.26752e-08
-1.32239e-10
3.27983e-08
-1.23066e-10
3.29126e-08
-1.14239e-10
3.30183e-08
-1.0575e-10
3.31159e-08
-9.75879e-11
3.32056e-08
-8.97446e-11
3.32878e-08
-8.22105e-11
3.33628e-08
-7.4977e-11
3.34309e-08
-6.80326e-11
3.34922e-08
-6.13707e-11
3.35472e-08
-5.49801e-11
3.35961e-08
-4.88518e-11
3.3639e-08
-4.29774e-11
3.36764e-08
-3.73468e-11
3.37083e-08
-3.19516e-11
3.37351e-08
-2.67819e-11
3.37569e-08
-2.18296e-11
3.3774e-08
-1.70872e-11
3.37866e-08
-1.25566e-11
3.37949e-08
-8.27592e-12
3.37992e-08
-4.38266e-12
3.37995e-08
-2.95539e-13
3.37961e-08
3.44354e-12
3.37889e-08
7.17638e-12
3.37782e-08
1.07275e-11
3.37641e-08
1.40661e-11
3.37469e-08
1.72101e-11
3.37267e-08
2.02147e-11
3.37036e-08
2.30903e-11
3.36778e-08
2.58383e-11
3.36493e-08
2.84534e-11
3.36184e-08
3.09423e-11
3.35851e-08
3.33144e-11
3.35495e-08
3.5582e-11
3.35117e-08
3.77512e-11
3.34719e-08
3.98269e-11
3.34301e-08
4.18139e-11
3.33864e-08
4.37145e-11
3.33409e-08
4.55334e-11
3.32936e-08
4.7274e-11
3.32446e-08
4.89428e-11
3.31941e-08
5.05429e-11
3.3142e-08
5.20817e-11
3.30885e-08
5.35613e-11
3.30335e-08
5.49868e-11
3.29771e-08
5.636e-11
3.29194e-08
5.76831e-11
3.28605e-08
5.89571e-11
3.28003e-08
6.01839e-11
3.27389e-08
6.13651e-11
3.26764e-08
6.25024e-11
3.26128e-08
6.35973e-11
3.25482e-08
6.46523e-11
3.24825e-08
6.5669e-11
3.24159e-08
6.66494e-11
3.23483e-08
6.75933e-11
3.22798e-08
6.85041e-11
3.22104e-08
6.93807e-11
3.21402e-08
7.02284e-11
3.20691e-08
7.10488e-11
3.19973e-08
7.18488e-11
3.19246e-08
7.26321e-11
3.18512e-08
7.34042e-11
3.17771e-08
7.41667e-11
3.17021e-08
7.49197e-11
3.16265e-08
7.56642e-11
3.15501e-08
7.6397e-11
3.1473e-08
7.71179e-11
3.13951e-08
7.78266e-11
3.13166e-08
7.85219e-11
3.12374e-08
7.92058e-11
3.11575e-08
7.98772e-11
3.1077e-08
8.0538e-11
3.09958e-08
8.1188e-11
3.0914e-08
8.18272e-11
3.08315e-08
8.24537e-11
3.07484e-08
8.30684e-11
3.06648e-08
8.36686e-11
3.05805e-08
8.42544e-11
3.04957e-08
8.48274e-11
3.04103e-08
8.53899e-11
3.03244e-08
8.59468e-11
3.02379e-08
8.65018e-11
3.01508e-08
8.70594e-11
3.00632e-08
8.76222e-11
2.9975e-08
8.81924e-11
2.98862e-08
8.87707e-11
2.97969e-08
8.93582e-11
2.97069e-08
8.99547e-11
2.96163e-08
9.05606e-11
2.95252e-08
9.11784e-11
2.94333e-08
9.18102e-11
2.93409e-08
9.24583e-11
2.92478e-08
9.31278e-11
2.91539e-08
9.38237e-11
2.90594e-08
9.45538e-11
2.89641e-08
9.53265e-11
2.88679e-08
9.6154e-11
2.87709e-08
9.70513e-11
2.86728e-08
9.80392e-11
2.85737e-08
9.91431e-11
2.84733e-08
1.00398e-10
2.83714e-08
1.0185e-10
2.82679e-08
1.03559e-10
2.81623e-08
1.05607e-10
2.80542e-08
1.08104e-10
2.79429e-08
1.11202e-10
2.78278e-08
1.15114e-10
2.77077e-08
1.20138e-10
2.7581e-08
1.26713e-10
2.74455e-08
1.35496e-10
2.7298e-08
1.47511e-10
2.71335e-08
1.64462e-10
2.69441e-08
1.89393e-10
2.67157e-08
2.28385e-10
2.64202e-08
2.95511e-10
2.59847e-08
4.35483e-10
2.52342e-08
7.50511e-10
1.81426e-09
2.342e-08
2.7933e-10
-3.78746e-10
9.6386e-10
-9.93575e-10
1.949e-09
-1.47159e-09
3.15504e-09
-1.82465e-09
4.51876e-09
-2.07576e-09
5.99187e-09
-2.24858e-09
7.53858e-09
-2.36347e-09
9.13291e-09
-2.43665e-09
1.07563e-08
-2.48035e-09
1.23955e-08
-2.50338e-09
1.40412e-08
-2.51188e-09
1.56864e-08
-2.51e-09
1.73262e-08
-2.50045e-09
1.89564e-08
-2.48496e-09
2.05739e-08
-2.46466e-09
2.21759e-08
-2.44026e-09
2.37599e-08
-2.41221e-09
2.53239e-08
-2.38087e-09
2.68656e-08
-2.34647e-09
2.83834e-08
-2.30927e-09
2.98755e-08
-2.26944e-09
3.13402e-08
-2.22722e-09
3.27762e-08
-2.1828e-09
3.41821e-08
-2.1364e-09
3.55568e-08
-2.08823e-09
3.68993e-08
-2.03851e-09
3.82087e-08
-1.98745e-09
3.94842e-08
-1.93527e-09
4.07253e-08
-1.88216e-09
4.19314e-08
-1.82834e-09
4.31022e-08
-1.774e-09
4.42374e-08
-1.71931e-09
4.5337e-08
-1.66447e-09
4.64009e-08
-1.60962e-09
4.74293e-08
-1.55492e-09
4.84222e-08
-1.50051e-09
4.93799e-08
-1.44653e-09
5.03028e-08
-1.39309e-09
5.11914e-08
-1.34029e-09
5.20459e-08
-1.28823e-09
5.28671e-08
-1.237e-09
5.36553e-08
-1.18666e-09
5.44114e-08
-1.13729e-09
5.51359e-08
-1.08894e-09
5.58294e-08
-1.04165e-09
5.64928e-08
-9.95468e-10
5.71267e-08
-9.50416e-10
5.77319e-08
-9.06521e-10
5.83091e-08
-8.638e-10
5.88591e-08
-8.22264e-10
5.93827e-08
-7.81921e-10
5.98806e-08
-7.42773e-10
6.03537e-08
-7.04815e-10
6.08026e-08
-6.68043e-10
6.12282e-08
-6.32446e-10
6.16311e-08
-5.98014e-10
6.20123e-08
-5.64729e-10
6.23723e-08
-5.32576e-10
6.27119e-08
-5.01534e-10
6.30318e-08
-4.71584e-10
6.33327e-08
-4.42704e-10
6.36154e-08
-4.1487e-10
6.38804e-08
-3.88058e-10
6.41284e-08
-3.62243e-10
6.436e-08
-3.374e-10
6.45759e-08
-3.13505e-10
6.47767e-08
-2.90528e-10
6.4963e-08
-2.68447e-10
6.51352e-08
-2.47232e-10
6.5294e-08
-2.2686e-10
6.544e-08
-2.07302e-10
6.55735e-08
-1.88535e-10
6.56952e-08
-1.70531e-10
6.58055e-08
-1.53265e-10
6.59049e-08
-1.36713e-10
6.59938e-08
-1.2085e-10
6.60726e-08
-1.05651e-10
6.61419e-08
-9.10919e-11
6.6202e-08
-7.71542e-11
6.62532e-08
-6.38169e-11
6.6296e-08
-5.10742e-11
6.63305e-08
-3.89035e-11
6.63574e-08
-2.71841e-11
6.63768e-08
-1.59784e-11
6.63893e-08
-5.28243e-12
6.63954e-08
4.62028e-12
6.63948e-08
1.4675e-11
6.63881e-08
2.39602e-11
6.63754e-08
3.28598e-11
6.63571e-08
4.13725e-11
6.63334e-08
4.95246e-11
6.63046e-08
5.73126e-11
6.62708e-08
6.47426e-11
6.62323e-08
7.18358e-11
6.61892e-08
7.86129e-11
6.61419e-08
8.50911e-11
6.60904e-08
9.12855e-11
6.6035e-08
9.72067e-11
6.59759e-08
1.0287e-10
6.59131e-08
1.08285e-10
6.58469e-08
1.13467e-10
6.57775e-08
1.18424e-10
6.57048e-08
1.23173e-10
6.56292e-08
1.27724e-10
6.55507e-08
1.32088e-10
6.54694e-08
1.36275e-10
6.53854e-08
1.40295e-10
6.5299e-08
1.44157e-10
6.52101e-08
1.47867e-10
6.51188e-08
1.51434e-10
6.50253e-08
1.54865e-10
6.49297e-08
1.58167e-10
6.48319e-08
1.61346e-10
6.47321e-08
1.64412e-10
6.46305e-08
1.67367e-10
6.45269e-08
1.70221e-10
6.44215e-08
1.72978e-10
6.43144e-08
1.75641e-10
6.42055e-08
1.78219e-10
6.4095e-08
1.80716e-10
6.39829e-08
1.83139e-10
6.38693e-08
1.85497e-10
6.37541e-08
1.87796e-10
6.36375e-08
1.90043e-10
6.35194e-08
1.92245e-10
6.33999e-08
1.94405e-10
6.32791e-08
1.96524e-10
6.31569e-08
1.98604e-10
6.30333e-08
2.00647e-10
6.29085e-08
2.02653e-10
6.27824e-08
2.04626e-10
6.2655e-08
2.06567e-10
6.25264e-08
2.08479e-10
6.23966e-08
2.10364e-10
6.22656e-08
2.12225e-10
6.21333e-08
2.1406e-10
6.19999e-08
2.15874e-10
6.18653e-08
2.17665e-10
6.17296e-08
2.19433e-10
6.15926e-08
2.2118e-10
6.14546e-08
2.2291e-10
6.13153e-08
2.24622e-10
6.11749e-08
2.26327e-10
6.10334e-08
2.28026e-10
6.08907e-08
2.29728e-10
6.07469e-08
2.31437e-10
6.0602e-08
2.33157e-10
6.04558e-08
2.34889e-10
6.03086e-08
2.36639e-10
6.01601e-08
2.38409e-10
6.00105e-08
2.40205e-10
5.98596e-08
2.42033e-10
5.97075e-08
2.43898e-10
5.95542e-08
2.45815e-10
5.93995e-08
2.47794e-10
5.92435e-08
2.49852e-10
5.9086e-08
2.5201e-10
5.8927e-08
2.54297e-10
5.87665e-08
2.56746e-10
5.86041e-08
2.59405e-10
5.84398e-08
2.62333e-10
5.82733e-08
2.65606e-10
5.81044e-08
2.69327e-10
5.79326e-08
2.73633e-10
5.77575e-08
2.78701e-10
5.75783e-08
2.84774e-10
5.73942e-08
2.92178e-10
5.72041e-08
3.01362e-10
5.70063e-08
3.12948e-10
5.67986e-08
3.27825e-10
5.6578e-08
3.47277e-10
5.63403e-08
3.73226e-10
5.60791e-08
4.08671e-10
5.57851e-08
4.58517e-10
5.54431e-08
5.31373e-10
5.50277e-08
6.43784e-10
5.44916e-08
8.31615e-10
5.37408e-08
1.18623e-09
5.25494e-08
1.94193e-09
3.75009e-09
5.06136e-08
3.58615e-10
-7.37361e-10
1.22314e-09
-1.8581e-09
2.4466e-09
-2.69504e-09
3.92523e-09
-3.30328e-09
5.58341e-09
-3.73395e-09
7.36578e-09
-4.03094e-09
9.23207e-09
-4.22977e-09
1.11533e-08
-4.35787e-09
1.31086e-08
-4.43566e-09
1.50831e-08
-4.47782e-09
1.70658e-08
-4.49459e-09
1.90487e-08
-4.49293e-09
2.10257e-08
-4.47747e-09
2.2992e-08
-4.45123e-09
2.49435e-08
-4.41618e-09
2.68769e-08
-4.37361e-09
2.87891e-08
-4.3244e-09
3.06774e-08
-4.26917e-09
3.25393e-08
-4.20843e-09
3.43727e-08
-4.14261e-09
3.61753e-08
-4.0721e-09
3.79454e-08
-3.99728e-09
3.96811e-08
-3.91854e-09
4.1381e-08
-3.83627e-09
4.30436e-08
-3.75084e-09
4.46677e-08
-3.66266e-09
4.62524e-08
-3.57209e-09
4.77966e-08
-3.47951e-09
4.92998e-08
-3.3853e-09
5.07612e-08
-3.28981e-09
5.21806e-08
-3.19338e-09
5.35576e-08
-3.09634e-09
5.48922e-08
-2.99899e-09
5.61842e-08
-2.90163e-09
5.74338e-08
-2.80452e-09
5.86412e-08
-2.70791e-09
5.98067e-08
-2.61202e-09
6.09307e-08
-2.51708e-09
6.20136e-08
-2.42325e-09
6.30561e-08
-2.33072e-09
6.40588e-08
-2.23963e-09
6.50222e-08
-2.15012e-09
6.59472e-08
-2.06229e-09
6.68345e-08
-1.97624e-09
6.76849e-08
-1.89206e-09
6.84993e-08
-1.80982e-09
6.92784e-08
-1.72957e-09
7.00233e-08
-1.65135e-09
7.07347e-08
-1.5752e-09
7.14135e-08
-1.50114e-09
7.20608e-08
-1.42917e-09
7.26773e-08
-1.35932e-09
7.32641e-08
-1.29156e-09
7.38219e-08
-1.2259e-09
7.43518e-08
-1.16232e-09
7.48546e-08
-1.1008e-09
7.53312e-08
-1.04131e-09
7.57824e-08
-9.83816e-10
7.62092e-08
-9.28296e-10
7.66123e-08
-8.74714e-10
7.69926e-08
-8.23027e-10
7.7351e-08
-7.73198e-10
7.76881e-08
-7.25185e-10
7.80048e-08
-6.78945e-10
7.83018e-08
-6.34434e-10
7.85799e-08
-5.91606e-10
7.88398e-08
-5.50417e-10
7.90822e-08
-5.10821e-10
7.93077e-08
-4.72772e-10
7.95171e-08
-4.36223e-10
7.97109e-08
-4.0113e-10
7.98898e-08
-3.67447e-10
8.00544e-08
-3.35128e-10
8.02053e-08
-3.0413e-10
8.0343e-08
-2.74406e-10
8.04681e-08
-2.45917e-10
8.0581e-08
-2.18617e-10
8.06824e-08
-1.92466e-10
8.07727e-08
-1.67424e-10
8.08523e-08
-1.4345e-10
8.09217e-08
-1.20507e-10
8.09814e-08
-9.85507e-11
8.10317e-08
-7.75311e-11
8.10732e-08
-5.74244e-11
8.11061e-08
-3.82224e-11
8.11306e-08
-1.99056e-11
8.11478e-08
-2.52796e-12
8.11576e-08
1.41874e-11
8.11602e-08
3.02643e-11
8.1156e-08
4.56057e-11
8.11452e-08
6.02827e-11
8.11282e-08
7.43077e-11
8.11053e-08
8.76884e-11
8.10767e-08
1.00462e-10
8.10426e-08
1.12663e-10
8.10034e-08
1.24321e-10
8.09592e-08
1.35462e-10
8.09103e-08
1.46111e-10
8.08569e-08
1.56289e-10
8.07991e-08
1.66021e-10
8.07373e-08
1.75327e-10
8.06715e-08
1.8423e-10
8.06019e-08
1.92749e-10
8.05287e-08
2.00906e-10
8.04521e-08
2.0872e-10
8.03722e-08
2.16211e-10
8.02891e-08
2.23393e-10
8.02029e-08
2.30285e-10
8.01139e-08
2.36901e-10
8.00221e-08
2.43255e-10
7.99276e-08
2.49363e-10
7.98305e-08
2.55237e-10
7.9731e-08
2.60891e-10
7.96291e-08
2.66337e-10
7.95248e-08
2.71589e-10
7.94184e-08
2.76657e-10
7.93098e-08
2.8155e-10
7.91992e-08
2.86282e-10
7.90865e-08
2.9086e-10
7.8972e-08
2.95295e-10
7.88555e-08
2.99598e-10
7.87372e-08
3.03781e-10
7.86172e-08
3.07851e-10
7.84954e-08
3.11824e-10
7.83719e-08
3.15704e-10
7.82468e-08
3.19501e-10
7.81201e-08
3.23219e-10
7.79919e-08
3.26862e-10
7.78621e-08
3.30437e-10
7.77308e-08
3.33948e-10
7.7598e-08
3.37397e-10
7.74638e-08
3.40793e-10
7.73281e-08
3.44137e-10
7.71911e-08
3.47435e-10
7.70526e-08
3.50689e-10
7.69128e-08
3.53906e-10
7.67715e-08
3.57085e-10
7.6629e-08
3.60232e-10
7.64851e-08
3.63346e-10
7.63398e-08
3.66431e-10
7.61932e-08
3.69492e-10
7.60453e-08
3.72533e-10
7.58961e-08
3.75561e-10
7.57455e-08
3.78583e-10
7.55937e-08
3.81607e-10
7.54405e-08
3.84637e-10
7.52859e-08
3.87682e-10
7.51301e-08
3.90749e-10
7.49729e-08
3.93842e-10
7.48143e-08
3.9697e-10
7.46544e-08
4.00143e-10
7.4493e-08
4.03371e-10
7.43303e-08
4.06671e-10
7.4166e-08
4.1006e-10
7.40002e-08
4.13563e-10
7.38329e-08
4.17211e-10
7.36638e-08
4.2104e-10
7.3493e-08
4.25102e-10
7.33203e-08
4.29459e-10
7.31455e-08
4.34195e-10
7.29685e-08
4.39415e-10
7.27888e-08
4.45262e-10
7.26062e-08
4.51918e-10
7.24202e-08
4.59626e-10
7.22302e-08
4.68711e-10
7.20354e-08
4.79604e-10
7.18347e-08
4.92894e-10
7.16266e-08
5.09385e-10
7.14094e-08
5.30192e-10
7.11803e-08
5.56897e-10
7.09358e-08
5.91785e-10
7.06708e-08
6.38257e-10
7.03779e-08
7.01557e-10
7.00462e-08
7.90166e-10
6.9659e-08
9.18609e-10
6.91891e-08
1.1137e-09
6.85911e-08
1.42965e-09
6.77898e-08
1.98752e-09
6.66516e-08
3.08009e-09
5.20006e-09
6.52016e-08
3.86143e-10
-1.1235e-09
1.32461e-09
-2.79657e-09
2.65435e-09
-4.02478e-09
4.25904e-09
-4.90797e-09
6.05484e-09
-5.52975e-09
7.98138e-09
-5.95748e-09
9.99548e-09
-6.24387e-09
1.20664e-08
-6.42882e-09
1.41724e-08
-6.5416e-09
1.62977e-08
-6.60313e-09
1.8431e-08
-6.62792e-09
2.05639e-08
-6.62584e-09
2.26899e-08
-6.60347e-09
2.48038e-08
-6.56516e-09
2.69014e-08
-6.51374e-09
2.89789e-08
-6.4511e-09
3.1033e-08
-6.37857e-09
3.3061e-08
-6.2971e-09
3.506e-08
-6.20746e-09
3.70277e-08
-6.1103e-09
3.89618e-08
-6.00624e-09
4.08604e-08
-5.89586e-09
4.27216e-08
-5.77975e-09
4.45438e-08
-5.65848e-09
4.63256e-08
-5.53264e-09
4.80658e-08
-5.4028e-09
4.97632e-08
-5.26953e-09
5.14171e-08
-5.13338e-09
5.30267e-08
-4.99489e-09
5.45915e-08
-4.85459e-09
5.6111e-08
-4.71297e-09
5.75852e-08
-4.57051e-09
5.90139e-08
-4.42765e-09
6.03971e-08
-4.28482e-09
6.17349e-08
-4.1424e-09
6.30278e-08
-4.00074e-09
6.42759e-08
-3.86019e-09
6.54799e-08
-3.72104e-09
6.66402e-08
-3.58355e-09
6.77574e-08
-3.44797e-09
6.88323e-08
-3.31452e-09
6.98656e-08
-3.18337e-09
7.0858e-08
-3.05471e-09
7.18104e-08
-2.92866e-09
7.27237e-08
-2.80534e-09
7.35987e-08
-2.68485e-09
7.44364e-08
-2.56727e-09
7.52378e-08
-2.45267e-09
7.60036e-08
-2.34108e-09
7.6735e-08
-2.23254e-09
7.74329e-08
-2.12707e-09
7.80983e-08
-2.02468e-09
7.87321e-08
-1.92535e-09
7.93352e-08
-1.82907e-09
7.99088e-08
-1.73583e-09
8.04536e-08
-1.6456e-09
8.09706e-08
-1.55833e-09
8.14607e-08
-1.47398e-09
8.1925e-08
-1.39252e-09
8.23641e-08
-1.31388e-09
8.27791e-08
-1.23801e-09
8.31708e-08
-1.16486e-09
8.35399e-08
-1.09436e-09
8.38875e-08
-1.02645e-09
8.42141e-08
-9.61076e-10
8.45207e-08
-8.98161e-10
8.48079e-08
-8.37647e-10
8.50765e-08
-7.79464e-10
8.53273e-08
-7.23547e-10
8.55609e-08
-6.69828e-10
8.5778e-08
-6.18242e-10
8.59793e-08
-5.68722e-10
8.61654e-08
-5.21204e-10
8.63369e-08
-4.75623e-10
8.64944e-08
-4.31913e-10
8.66385e-08
-3.90012e-10
8.67697e-08
-3.49861e-10
8.68886e-08
-3.11394e-10
8.69958e-08
-2.74555e-10
8.70916e-08
-2.39283e-10
8.71766e-08
-2.05525e-10
8.72513e-08
-1.73217e-10
8.73161e-08
-1.42305e-10
8.73714e-08
-1.12739e-10
8.74176e-08
-8.44752e-11
8.74552e-08
-5.74785e-11
8.74844e-08
-3.17174e-11
8.75059e-08
-7.28811e-12
8.75202e-08
1.59596e-11
8.7527e-08
3.87879e-11
8.75269e-08
6.04106e-11
8.75201e-08
8.10617e-11
8.7507e-08
1.00751e-10
8.7488e-08
1.19539e-10
8.74632e-08
1.37479e-10
8.74329e-08
1.54617e-10
8.73973e-08
1.70991e-10
8.73568e-08
1.86635e-10
8.73115e-08
2.01584e-10
8.72617e-08
2.15873e-10
8.72075e-08
2.29532e-10
8.71491e-08
2.42593e-10
8.70868e-08
2.55088e-10
8.70206e-08
2.67044e-10
8.69509e-08
2.78492e-10
8.68776e-08
2.89456e-10
8.6801e-08
2.99964e-10
8.67213e-08
3.10038e-10
8.66385e-08
3.19704e-10
8.65528e-08
3.28981e-10
8.64642e-08
3.37892e-10
8.6373e-08
3.46459e-10
8.62792e-08
3.547e-10
8.61829e-08
3.62632e-10
8.60842e-08
3.70276e-10
8.59832e-08
3.77649e-10
8.588e-08
3.84764e-10
8.57747e-08
3.9164e-10
8.56672e-08
3.98292e-10
8.55578e-08
4.04732e-10
8.54464e-08
4.10976e-10
8.53332e-08
4.17041e-10
8.52181e-08
4.22939e-10
8.51012e-08
4.28685e-10
8.49826e-08
4.34291e-10
8.48624e-08
4.39768e-10
8.47404e-08
4.45126e-10
8.46169e-08
4.50371e-10
8.44919e-08
4.55515e-10