/*--------------------------------*- C++ -*----------------------------------*\
  =========                 |
  \\      /  F ield         | OpenFOAM: The Open Source CFD Toolbox
   \\    /   O peration     | Website:  https://openfoam.org
    \\  /    A nd           | Version:  8
     \\/     M anipulation  |
\*---------------------------------------------------------------------------*/
FoamFile
{
    version     2.0;
    format      ascii;
    class       volVectorField;
    location    "0.04";
    object      U;
}
// * * * * * * * * * * * * * * * * * * * * * * * * * * * * * * * * * * * * * //

dimensions      [0 1 -1 0 0 0 0];

internalField   nonuniform List<vector> 
12225
(
(0.0492351 0.0115112 0)
(0.0381592 0.00169769 0)
(0.0254861 0.000166339 0)
(0.0232938 7.66382e-05 0)
(0.0224996 2.97633e-05 0)
(0.0221764 6.3582e-06 0)
(0.0221528 -6.27135e-06 0)
(0.0223007 -1.58472e-05 0)
(0.0225814 -2.50501e-05 0)
(0.0229894 -3.55953e-05 0)
(0.0235402 -4.91758e-05 0)
(0.0242705 -6.81523e-05 0)
(0.0252473 -9.67168e-05 0)
(0.0265927 -0.000143969 0)
(0.028559 -0.000239082 0)
(0.0316963 -0.000459524 0)
(0.0386295 -0.00137834 0)
(0.0563867 -0.0131098 0)
(0.107387 0.0306838 0)
(0.0924005 0.00782614 0)
(0.0686344 0.00217833 0)
(0.0624571 0.000737069 0)
(0.0602304 0.000290568 0)
(0.0593111 8.64462e-05 0)
(0.0591891 -3.32356e-05 0)
(0.0595366 -0.000121066 0)
(0.0602408 -0.000202981 0)
(0.0612807 -0.000294406 0)
(0.0626916 -0.000409724 0)
(0.0645636 -0.000568471 0)
(0.0670616 -0.00080463 0)
(0.0704808 -0.00118984 0)
(0.0753931 -0.00191067 0)
(0.0829543 -0.00355204 0)
(0.0965504 -0.00823682 0)
(0.123454 -0.0289749 0)
(0.140446 0.0403512 0)
(0.130664 0.01491 0)
(0.10465 0.00543023 0)
(0.0955549 0.00205375 0)
(0.0921359 0.000820816 0)
(0.0906968 0.000261367 0)
(0.0904445 -6.98363e-05 0)
(0.0909078 -0.000312536 0)
(0.0919084 -0.000535979 0)
(0.0934063 -0.000782506 0)
(0.0954444 -0.00109048 0)
(0.0981428 -0.00151058 0)
(0.101721 -0.00212822 0)
(0.106561 -0.00311362 0)
(0.113349 -0.00486102 0)
(0.123315 -0.0084224 0)
(0.13887 -0.016819 0)
(0.16334 -0.041013 0)
(0.158093 0.0425665 0)
(0.156351 0.0211795 0)
(0.133369 0.00937508 0)
(0.122825 0.00393014 0)
(0.118567 0.00162163 0)
(0.116719 0.000543398 0)
(0.116331 -0.000100075 0)
(0.116849 -0.00057207 0)
(0.118043 -0.00100207 0)
(0.119853 -0.00147085 0)
(0.122319 -0.0020498 0)
(0.125569 -0.0028301 0)
(0.129833 -0.00395938 0)
(0.135494 -0.00571502 0)
(0.143172 -0.00867844 0)
(0.153781 -0.0141854 0)
(0.168377 -0.0253285 0)
(0.18685 -0.0492991 0)
(0.166487 0.0409745 0)
(0.172258 0.0257581 0)
(0.155001 0.0132412 0)
(0.14451 0.00610878 0)
(0.139871 0.00263288 0)
(0.13777 0.000919948 0)
(0.137267 -0.000117716 0)
(0.137799 -0.000882653 0)
(0.139103 -0.00157448 0)
(0.141101 -0.00232006 0)
(0.143819 -0.00322914 0)
(0.147372 -0.00443632 0)
(0.151966 -0.00614895 0)
(0.157913 -0.00873096 0)
(0.165647 -0.0128724 0)
(0.175617 -0.0199428 0)
(0.187768 -0.0325223 0)
(0.200179 -0.0546167 0)
(0.169464 0.0372261 0)
(0.180754 0.0284197 0)
(0.170073 0.0164872 0)
(0.160886 0.0083105 0)
(0.156388 0.00376723 0)
(0.154239 0.0013685 0)
(0.153677 -0.000120217 0)
(0.154202 -0.00122794 0)
(0.155548 -0.00222526 0)
(0.157622 -0.00328776 0)
(0.160432 -0.00456455 0)
(0.164064 -0.00623004 0)
(0.168669 -0.00853734 0)
(0.174448 -0.0118978 0)
(0.181604 -0.0170139 0)
(0.190157 -0.0250887 0)
(0.199375 -0.0379693 0)
(0.206822 -0.0574728 0)
(0.16953 0.0324619 0)
(0.184035 0.0292746 0)
(0.17953 0.0188013 0)
(0.172443 0.010267 0)
(0.16857 0.00490345 0)
(0.166604 0.00184516 0)
(0.166065 -0.000117169 0)
(0.166586 -0.00159843 0)
(0.167926 -0.00293031 0)
(0.169984 -0.00433372 0)
(0.17275 -0.00599349 0)
(0.17627 -0.00811493 0)
(0.180625 -0.0109762 0)
(0.185893 -0.0149923 0)
(0.192068 -0.0207984 0)
(0.198858 -0.0293281 0)
(0.205256 -0.0417247 0)
(0.20903 -0.0584839 0)
(0.168258 0.0274369 0)
(0.183979 0.0286232 0)
(0.184555 0.0200635 0)
(0.179869 0.0117658 0)
(0.176977 0.00590828 0)
(0.175414 0.00228928 0)
(0.174997 -0.000129145 0)
(0.175534 -0.00199052 0)
(0.176837 -0.00366786 0)
(0.17881 -0.00541775 0)
(0.181423 -0.00745272 0)
(0.18468 -0.00999637 0)
(0.188592 -0.0133294 0)
(0.193128 -0.0178332 0)
(0.198124 -0.0240257 0)
(0.203121 -0.0325508 0)
(0.207105 -0.0439937 0)
(0.208327 -0.0581396 0)
(0.166563 0.0226496 0)
(0.182051 0.0268527 0)
(0.18637 0.0203041 0)
(0.18398 0.0126737 0)
(0.182246 0.00665946 0)
(0.181254 0.00263152 0)
(0.181055 -0.000186157 0)
(0.181641 -0.00240717 0)
(0.182895 -0.00442002 0)
(0.184733 -0.00650223 0)
(0.187112 -0.00888244 0)
(0.190001 -0.0117885 0)
(0.193349 -0.0154837 0)
(0.197042 -0.0202901 0)
(0.200823 -0.0265902 0)
(0.204188 -0.0347704 0)
(0.206258 -0.0450293 0)
(0.205792 -0.05683 0)
(0.164909 0.0183793 0)
(0.179274 0.0243612 0)
(0.186062 0.019661 0)
(0.185609 0.0129445 0)
(0.18504 0.00706552 0)
(0.184711 0.00280435 0)
(0.184807 -0.000324835 0)
(0.185475 -0.00285938 0)
(0.186676 -0.00517672 0)
(0.188349 -0.00755799 0)
(0.190443 -0.0102346 0)
(0.192899 -0.0134251 0)
(0.195625 -0.0173603 0)
(0.198454 -0.0222913 0)
(0.201098 -0.0284707 0)
(0.203082 -0.0360842 0)
(0.203721 -0.0450942 0)
(0.202195 -0.0548667 0)
(0.163478 0.0147245 0)
(0.176265 0.0214428 0)
(0.184472 0.0182934 0)
(0.185502 0.0125983 0)
(0.185976 0.00707692 0)
(0.186322 0.00275898 0)
(0.186754 -0.000571252 0)
(0.187529 -0.00334881 0)
(0.188681 -0.00591731 0)
(0.190173 -0.0085441 0)
(0.191955 -0.0114499 0)
(0.193952 -0.0148326 0)
(0.196048 -0.0188823 0)
(0.19806 -0.0237785 0)
(0.199707 -0.0296645 0)
(0.200589 -0.0365873 0)
(0.200214 -0.0443862 0)
(0.198079 -0.0524551 0)
(0.162423 0.012095 0)
(0.17376 0.0186059 0)
(0.182624 0.0165488 0)
(0.18459 0.0118087 0)
(0.18583 0.00672305 0)
(0.186739 0.00248031 0)
(0.18748 -0.000932397 0)
(0.188362 -0.00385861 0)
(0.18947 -0.00659746 0)
(0.190791 -0.00939052 0)
(0.192279 -0.0124385 0)
(0.193857 -0.0159134 0)
(0.195402 -0.0199646 0)
(0.196737 -0.0247126 0)
(0.197614 -0.0302239 0)
(0.197716 -0.0364652 0)
(0.196699 -0.0432342 0)
(0.194269 -0.0499907 0)
(0.161518 0.00984941 0)
(0.17154 0.0157076 0)
(0.180853 0.0144811 0)
(0.183445 0.0106596 0)
(0.185243 0.00607513 0)
(0.186648 0.00200521 0)
(0.187681 -0.00139982 0)
(0.188667 -0.00440003 0)
(0.189734 -0.00724445 0)
(0.19089 -0.0101408 0)
(0.192097 -0.0132634 0)
(0.193282 -0.0167548 0)
(0.19433 -0.0207262 0)
(0.19508 -0.0252493 0)
(0.195329 -0.0303358 0)
(0.194836 -0.0359076 0)
(0.193385 -0.0417554 0)
(0.190775 -0.0473987 0)
(0.160656 0.00769046 0)
(0.169461 0.0126065 0)
(0.179171 0.0119181 0)
(0.182175 0.00894552 0)
(0.184351 0.00497293 0)
(0.186185 0.00120016 0)
(0.187499 -0.0020955 0)
(0.188577 -0.00508608 0)
(0.189587 -0.00796512 0)
(0.190556 -0.0108967 0)
(0.191457 -0.0140193 0)
(0.192229 -0.0174404 0)
(0.192774 -0.0212319 0)
(0.192963 -0.0254227 0)
(0.192645 -0.0299857 0)
(0.191655 -0.0348218 0)
(0.189889 -0.0397379 0)
(0.187203 -0.0443309 0)
(0.159845 0.00550437 0)
(0.167476 0.00928075 0)
(0.177477 0.00886263 0)
(0.180706 0.0066111 0)
(0.183051 0.00333435 0)
(0.18519 -2.41559e-06 0)
(0.186729 -0.00305895 0)
(0.187866 -0.00592113 0)
(0.188792 -0.00872511 0)
(0.189552 -0.0115858 0)
(0.190134 -0.0145994 0)
(0.190496 -0.0178354 0)
(0.190568 -0.0213294 0)
(0.190259 -0.0250784 0)
(0.189474 -0.0290341 0)
(0.188116 -0.0330977 0)
(0.186164 -0.0371075 0)
(0.1835 -0.0407433 0)
(0.159149 0.00338984 0)
(0.16567 0.00576936 0)
(0.175805 0.00536184 0)
(0.179087 0.00367781 0)
(0.181392 0.00112394 0)
(0.183665 -0.00164868 0)
(0.185329 -0.00431999 0)
(0.186466 -0.00690825 0)
(0.187269 -0.00949464 0)
(0.187803 -0.0121463 0)
(0.188073 -0.0149164 0)
(0.188057 -0.0178383 0)
(0.187718 -0.0209182 0)
(0.187009 -0.024133 0)
(0.185883 -0.0274288 0)
(0.184292 -0.0307208 0)
(0.182279 -0.0338842 0)
(0.179721 -0.0366775 0)
(0.158602 0.00138545 0)
(0.164162 0.00210535 0)
(0.174289 0.00147975 0)
(0.177476 0.000218402 0)
(0.179562 -0.0016229 0)
(0.181777 -0.00371974 0)
(0.183432 -0.00585068 0)
(0.184482 -0.00799972 0)
(0.185114 -0.0102021 0)
(0.185407 -0.0124843 0)
(0.185381 -0.0148622 0)
(0.185041 -0.0173388 0)
(0.184378 -0.0198999 0)
(0.18338 -0.0225131 0)
(0.18204 -0.0251287 0)
(0.180342 -0.0276813 0)
(0.178366 -0.0300815 0)
(0.175974 -0.032155 0)
(0.158225 -0.000559219 0)
(0.163091 -0.00171417 0)
(0.173145 -0.002726 0)
(0.176147 -0.00366114 0)
(0.1779 -0.00479145 0)
(0.179887 -0.00610892 0)
(0.181377 -0.00754227 0)
(0.182233 -0.00908023 0)
(0.182627 -0.0107274 0)
(0.182656 -0.0124792 0)
(0.182352 -0.0143235 0)
(0.18174 -0.0162413 0)
(0.180834 -0.0182054 0)
(0.179648 -0.020181 0)
(0.178195 -0.0221263 0)
(0.176482 -0.023994 0)
(0.174603 -0.0257229 0)
(0.172401 -0.0271926 0)
(0.158094 -0.00265091 0)
(0.162723 -0.00584305 0)
(0.172719 -0.00726654 0)
(0.175508 -0.0078615 0)
(0.176901 -0.00820203 0)
(0.178528 -0.00859213 0)
(0.179679 -0.00915601 0)
(0.180197 -0.00991556 0)
(0.180257 -0.0108539 0)
(0.179969 -0.0119423 0)
(0.179378 -0.0131472 0)
(0.178517 -0.0144334 0)
(0.177417 -0.0157651 0)
(0.176103 -0.0171068 0)
(0.174597 -0.0184234 0)
(0.172911 -0.0196802 0)
(0.171146 -0.0208355 0)
(0.169131 -0.0218135 0)
(0.158416 -0.00474097 0)
(0.163636 -0.00987012 0)
(0.173543 -0.0114747 0)
(0.176084 -0.0114898 0)
(0.177199 -0.0109054 0)
(0.178407 -0.0103242 0)
(0.17907 -0.0100259 0)
(0.179127 -0.0100459 0)
(0.178783 -0.0103372 0)
(0.178147 -0.0108432 0)
(0.177266 -0.0115089 0)
(0.176177 -0.0122841 0)
(0.174911 -0.0131251 0)
(0.17349 -0.0139943 0)
(0.171939 -0.0148592 0)
(0.170266 -0.0156913 0)
(0.16856 -0.0164603 0)
(0.166676 -0.0171206 0)
(0.158923 -0.00685875 0)
(0.165252 -0.0136654 0)
(0.175317 -0.0150291 0)
(0.177619 -0.0141403 0)
(0.178369 -0.0125454 0)
(0.17905 -0.0110867 0)
(0.179149 -0.0100981 0)
(0.178716 -0.00957495 0)
(0.177972 -0.009421 0)
(0.177015 -0.00954335 0)
(0.175885 -0.00986321 0)
(0.174609 -0.0103161 0)
(0.173211 -0.0108512 0)
(0.171709 -0.0114285 0)
(0.170119 -0.0120166 0)
(0.168447 -0.0125901 0)
(0.166769 -0.0131252 0)
(0.164961 -0.0135933 0)
(0.159726 -0.00960159 0)
(0.167817 -0.0178089 0)
(0.178075 -0.0182811 0)
(0.179841 -0.0160883 0)
(0.179913 -0.013353 0)
(0.179833 -0.0110747 0)
(0.17923 -0.00953909 0)
(0.178246 -0.00863429 0)
(0.17709 -0.00818839 0)
(0.175826 -0.00806542 0)
(0.17447 -0.00816283 0)
(0.173034 -0.00840453 0)
(0.171529 -0.00873522 0)
(0.169962 -0.00911462 0)
(0.168342 -0.00951281 0)
(0.16667 -0.00990749 0)
(0.16501 -0.0102796 0)
(0.163258 -0.0106144 0)
(0.160997 -0.0133766 0)
(0.171469 -0.0223031 0)
(0.181411 -0.0209812 0)
(0.181928 -0.0171099 0)
(0.180842 -0.0132174 0)
(0.179738 -0.0102912 0)
(0.178334 -0.00842449 0)
(0.176796 -0.00733051 0)
(0.175261 -0.00674964 0)
(0.173736 -0.00650744 0)
(0.172203 -0.00648517 0)
(0.17065 -0.00660204 0)
(0.169073 -0.00680339 0)
(0.167468 -0.00705149 0)
(0.165838 -0.00731962 0)
(0.164178 -0.00758881 0)
(0.16254 -0.00784429 0)
(0.160842 -0.00808306 0)
(0.162862 -0.0184999 0)
(0.175875 -0.0267371 0)
(0.184118 -0.0226053 0)
(0.182284 -0.0168903 0)
(0.179548 -0.0120613 0)
(0.177265 -0.00881793 0)
(0.175085 -0.00689912 0)
(0.173082 -0.00581457 0)
(0.171266 -0.0052375 0)
(0.169568 -0.00497546 0)
(0.167931 -0.00490836 0)
(0.166321 -0.00496047 0)
(0.16472 -0.00508341 0)
(0.163116 -0.00524506 0)
(0.161507 -0.0054233 0)
(0.159883 -0.00560282 0)
(0.158286 -0.00577237 0)
(0.156661 -0.00593896 0)
(0.165125 -0.0249939 0)
(0.179679 -0.0301953 0)
(0.183828 -0.0224831 0)
(0.178489 -0.015208 0)
(0.173896 -0.00997683 0)
(0.170547 -0.00687016 0)
(0.167797 -0.00517929 0)
(0.16552 -0.00426458 0)
(0.163574 -0.00378722 0)
(0.16182 -0.00356717 0)
(0.160171 -0.00349974 0)
(0.158578 -0.00352299 0)
(0.157014 -0.00359891 0)
(0.155461 -0.00370289 0)
(0.153915 -0.00381807 0)
(0.152367 -0.0039327 0)
(0.150845 -0.00403807 0)
(0.149323 -0.00414861 0)
(0.166718 -0.0323056 0)
(0.180001 -0.0313844 0)
(0.177128 -0.0200984 0)
(0.167771 -0.0121532 0)
(0.161701 -0.00730145 0)
(0.157724 -0.00477585 0)
(0.154761 -0.00350714 0)
(0.152462 -0.0028469 0)
(0.150561 -0.00251058 0)
(0.148879 -0.00235688 0)
(0.147319 -0.00230794 0)
(0.145824 -0.00231989 0)
(0.144366 -0.00236652 0)
(0.142927 -0.00243094 0)
(0.1415 -0.00250145 0)
(0.140078 -0.00256945 0)
(0.13868 -0.00262769 0)
(0.137308 -0.00269422 0)
(0.164868 -0.0389158 0)
(0.172402 -0.0290367 0)
(0.160372 -0.015481 0)
(0.147869 -0.0082601 0)
(0.141338 -0.00455985 0)
(0.137381 -0.00287602 0)
(0.134607 -0.0020817 0)
(0.132533 -0.0016791 0)
(0.130841 -0.00147876 0)
(0.129356 -0.00138878 0)
(0.127984 -0.00136061 0)
(0.126674 -0.00136787 0)
(0.125398 -0.00139491 0)
(0.124142 -0.00143163 0)
(0.1229 -0.0014708 0)
(0.121667 -0.00150656 0)
(0.120456 -0.0015324 0)
(0.119291 -0.00156496 0)
(0.154071 -0.0417387 0)
(0.151498 -0.0224999 0)
(0.130966 -0.00953057 0)
(0.11781 -0.00442593 0)
(0.112121 -0.00227296 0)
(0.108812 -0.00141014 0)
(0.106567 -0.00101551 0)
(0.104917 -0.000818512 0)
(0.103575 -0.000722725 0)
(0.102397 -0.000680591 0)
(0.101308 -0.000668038 0)
(0.100267 -0.000672267 0)
(0.0992537 -0.000685687 0)
(0.098257 -0.000703326 0)
(0.0972733 -0.000721438 0)
(0.0962996 -0.000736574 0)
(0.0953451 -0.000743009 0)
(0.0944471 -0.000749603 0)
(0.124623 -0.0344041 0)
(0.111776 -0.0126982 0)
(0.0882823 -0.00402559 0)
(0.0779643 -0.00159802 0)
(0.0741819 -0.000779296 0)
(0.0719774 -0.000485604 0)
(0.0705032 -0.000349929 0)
(0.0694251 -0.000283143 0)
(0.0685456 -0.000251492 0)
(0.0677703 -0.000237864 0)
(0.0670516 -0.000234087 0)
(0.0663638 -0.000235859 0)
(0.0656934 -0.000240602 0)
(0.0650342 -0.0002466 0)
(0.0643844 -0.000252464 0)
(0.0637431 -0.000256734 0)
(0.0631174 -0.000255254 0)
(0.0625456 -0.000247999 0)
(0.0613296 -0.0131288 0)
(0.0483122 -0.00291094 0)
(0.0337628 -0.000414606 0)
(0.0295132 -0.000155646 0)
(0.028174 -8.30178e-05 0)
(0.0273529 -5.08074e-05 0)
(0.0268061 -3.61574e-05 0)
(0.0264052 -2.93885e-05 0)
(0.0260752 -2.63014e-05 0)
(0.0257823 -2.50213e-05 0)
(0.0255095 -2.4711e-05 0)
(0.0252477 -2.49272e-05 0)
(0.0249921 -2.54033e-05 0)
(0.0247406 -2.59634e-05 0)
(0.0244929 -2.63914e-05 0)
(0.0242489 -2.66027e-05 0)
(0.0240116 -2.64962e-05 0)
(0.0238058 -2.25507e-05 0)
(1.74855e-05 -3.78581e-05 1.59346e-20)
(0.000198004 -0.000137152 -2.05293e-20)
(0.000549564 -0.000226478 0)
(0.00104685 -0.000292892 0)
(0.001645 -0.000338699 0)
(0.00231152 -0.000368337 2.05658e-20)
(0.00302352 -0.000386106 0)
(0.00376475 -0.000395603 0)
(0.00452374 -0.000399557 0)
(0.00529257 -0.000399883 0)
(0.00606586 -0.000397849 -2.05408e-20)
(0.00683991 -0.000394263 0)
(0.00761208 -0.000389619 0)
(0.00838045 -0.000384212 0)
(0.00914348 -0.000378213 0)
(0.00989989 -0.000371722 -2.04596e-20)
(0.0106486 -0.0003648 0)
(0.0113884 -0.000357489 0)
(0.0121186 -0.000349823 0)
(0.0128382 -0.000341835 0)
(0.0135463 -0.000333555 0)
(0.0142421 -0.00032502 0)
(0.0149251 -0.000316262 0)
(0.0155944 -0.000307319 -2.02253e-20)
(0.0162495 -0.000298227 2.01876e-20)
(0.01689 -0.000289023 -2.01481e-20)
(0.0175153 -0.000279741 -2.01068e-20)
(0.018125 -0.000270416 0)
(0.0187188 -0.000261082 0)
(0.0192965 -0.00025177 1.99725e-20)
(0.0198579 -0.000242508 1.99244e-20)
(0.0204027 -0.000233324 0)
(0.020931 -0.000224242 0)
(0.0214427 -0.000215284 1.97703e-20)
(0.0219378 -0.000206472 0)
(0.0224164 -0.000197822 0)
(0.0228785 -0.000189349 -1.96018e-20)
(0.0233244 -0.000181068 0)
(0.0237542 -0.00017299 -1.94818e-20)
(0.0241682 -0.000165122 -3.88392e-20)
(0.0245664 -0.000157474 0)
(0.0249493 -0.000150051 0)
(0.0253171 -0.000142857 0)
(0.0256701 -0.000135895 0)
(0.0260087 -0.000129165 0)
(0.0263331 -0.00012267 -3.80313e-20)
(0.0266437 -0.000116407 -3.78868e-20)
(0.0269408 -0.000110375 -3.77396e-20)
(0.0272249 -0.000104572 0)
(0.0274962 -9.89938e-05 3.74372e-20)
(0.0277551 -9.36378e-05 0)
(0.0280021 -8.84992e-05 -3.71242e-20)
(0.0282374 -8.35733e-05 -3.69639e-20)
(0.0284615 -7.88551e-05 0)
(0.0286746 -7.43392e-05 0)
(0.0288772 -7.00201e-05 0)
(0.0290696 -6.58919e-05 -3.62975e-20)
(0.0292522 -6.19489e-05 0)
(0.0294252 -5.8185e-05 0)
(0.0295891 -5.45943e-05 0)
(0.0297441 -5.11709e-05 0)
(0.0298906 -4.79085e-05 0)
(0.0300289 -4.48014e-05 0)
(0.0301594 -4.18436e-05 0)
(0.0302822 -3.90293e-05 0)
(0.0303977 -3.63526e-05 3.46617e-20)
(0.0305062 -3.3808e-05 0)
(0.030608 -3.13897e-05 0)
(0.0307033 -2.90924e-05 -3.40778e-20)
(0.0307924 -2.69103e-05 -3.38791e-20)
(0.0308755 -2.48381e-05 0)
(0.0309529 -2.28702e-05 3.34762e-20)
(0.0310248 -2.1001e-05 -3.32719e-20)
(0.0310915 -1.92245e-05 0)
(0.0311532 -1.75345e-05 3.2858e-20)
(0.03121 -1.59238e-05 0)
(0.0312622 -1.43839e-05 0)
(0.0313101 -1.29039e-05 -3.22242e-20)
(0.0313536 -1.14692e-05 0)
(0.0313932 -1.00583e-05 3.17936e-20)
(0.0314289 -8.65349e-06 0)
(0.0314611 -7.31354e-06 -3.13567e-20)
(0.0314898 -6.233e-06 -3.11361e-20)
(0.0315152 -5.35114e-06 -3.0914e-20)
(0.0315373 -4.68492e-06 -6.1381e-20)
(0.0315563 -4.12879e-06 6.09313e-20)
(0.0315722 -3.52152e-06 0)
(0.0315854 -2.89503e-06 0)
(0.031596 -2.27304e-06 0)
(0.031604 -1.66921e-06 5.91075e-20)
(0.0316097 -1.09618e-06 5.86457e-20)
(0.0316131 -5.5667e-07 -5.81817e-20)
(0.0316142 -4.93278e-08 0)
(0.0316134 4.28572e-07 5.72474e-20)
(0.0316106 8.79212e-07 5.67773e-20)
(0.0316059 1.30394e-06 5.63053e-20)
(0.0315994 1.70335e-06 0)
(0.0315912 2.07776e-06 0)
(0.0315815 2.42776e-06 0)
(0.0315701 2.75417e-06 5.43997e-20)
(0.0315574 3.0582e-06 0)
(0.0315432 3.34123e-06 0)
(0.0315276 3.60485e-06 -5.29541e-20)
(0.0315109 3.85053e-06 0)
(0.0314928 4.07972e-06 0)
(0.0314737 4.29345e-06 -5.14967e-20)
(0.0314534 4.49257e-06 0)
(0.031432 4.67762e-06 0)
(0.0314096 4.84906e-06 5.00294e-20)
(0.0313862 5.00733e-06 4.95385e-20)
(0.0313619 5.15296e-06 0)
(0.0313367 5.28656e-06 -4.85542e-20)
(0.0313106 5.40879e-06 0)
(0.0312837 5.52033e-06 4.75672e-20)
(0.031256 5.62179e-06 0)
(0.0312276 5.71368e-06 4.65782e-20)
(0.0311984 5.79637e-06 4.6083e-20)
(0.0311686 5.8701e-06 0)
(0.0311381 5.93524e-06 0)
(0.031107 5.99226e-06 0)
(0.0310752 6.04215e-06 0)
(0.031043 6.08617e-06 0)
(0.0310101 6.1258e-06 0)
(0.0309767 6.16219e-06 0)
(0.0309428 6.19608e-06 4.21143e-20)
(0.0309083 6.22763e-06 -4.16182e-20)
(0.0308733 6.25657e-06 0)
(0.0308379 6.28254e-06 0)
(0.0308019 6.30524e-06 0)
(0.0307654 6.32453e-06 0)
(0.0307285 6.3405e-06 -7.82835e-20)
(0.0306911 6.35332e-06 0)
(0.0306532 6.36327e-06 7.63081e-20)
(0.0306149 6.37059e-06 -7.53221e-20)
(0.0305762 6.37545e-06 0)
(0.030537 6.3779e-06 0)
(0.0304974 6.37789e-06 0)
(0.0304575 6.37514e-06 7.13915e-20)
(0.0304171 6.36941e-06 7.04127e-20)
(0.0303764 6.36049e-06 0)
(0.0303353 6.34847e-06 6.84603e-20)
(0.0302939 6.33387e-06 6.74868e-20)
(0.0302521 6.31752e-06 -6.65153e-20)
(0.03021 6.30041e-06 0)
(0.0301676 6.28339e-06 0)
(0.0301248 6.2671e-06 -6.36133e-20)
(0.0300816 6.25185e-06 0)
(0.0300382 6.23774e-06 0)
(0.0299943 6.22475e-06 0)
(0.0299501 6.21288e-06 0)
(0.0299055 6.20225e-06 5.88225e-20)
(0.0298604 6.19305e-06 5.78719e-20)
(0.029815 6.18565e-06 0)
(0.0297692 6.18054e-06 5.59787e-20)
(0.0297229 6.17837e-06 0)
(0.0296761 6.18001e-06 0)
(0.0296289 6.18653e-06 5.31601e-20)
(0.0295811 6.19934e-06 0)
(0.0295327 6.22019e-06 5.12959e-20)
(0.0294836 6.25141e-06 0)
(0.0294338 6.29596e-06 0)
(0.0293832 6.35775e-06 4.85233e-20)
(0.0293315 6.44182e-06 0)
(0.0292787 6.55485e-06 4.66915e-20)
(0.0292245 6.70568e-06 0)
(0.0291686 6.9061e-06 0)
(0.0291105 7.17209e-06 0)
(0.0290498 7.52548e-06 -4.30704e-20)
(0.0289856 7.99671e-06 0)
(0.0289171 8.62892e-06 4.12827e-20)
(0.0288427 9.48496e-06 0)
(0.0287605 1.06594e-05 0)
(0.0286678 1.23001e-05 0)
(0.0285603 1.46506e-05 0)
(0.0284315 1.81445e-05 0)
(0.0282703 2.36646e-05 0)
(0.0280561 3.3326e-05 0)
(0.0277413 5.61486e-05 -6.86726e-20)
(0.0272806 9.20296e-05 0)
(0.0256535 0.000382789 0)
(5.90161e-05 -0.000411849 -5.02558e-20)
(0.000497047 -0.00112262 6.57059e-20)
(0.00123832 -0.00168838 0)
(0.00222502 -0.00210367 -4.3838e-20)
(0.00337959 -0.00239108 0)
(0.00464999 -0.0025797 -2.19137e-20)
(0.00599991 -0.00269584 4.38134e-20)
(0.00740306 -0.00276062 4.37917e-20)
(0.00884025 -0.00278992 0)
(0.0102978 -0.00279505 4.37326e-20)
(0.011766 -0.00278378 2.18474e-20)
(0.0132377 -0.00276123 0)
(0.014708 -0.00273071 0)
(0.0161728 -0.00269431 0)
(0.0176291 -0.00265332 0)
(0.0190741 -0.0026086 2.17245e-20)
(0.0205056 -0.00256068 0)
(0.0219215 -0.00250996 -4.33247e-20)
(0.02332 -0.00245676 0)
(0.0246993 -0.00240136 0)
(0.0260578 -0.00234401 4.31114e-20)
(0.027394 -0.00228496 0)
(0.0287066 -0.00222448 -4.29533e-20)
(0.0299943 -0.00216279 2.14346e-20)
(0.0312559 -0.00210017 -2.13913e-20)
(0.0324905 -0.00203683 2.13467e-20)
(0.0336972 -0.00197303 2.13007e-20)
(0.0348752 -0.00190899 0)
(0.036024 -0.00184492 0)
(0.0371429 -0.00178102 -2.11547e-20)
(0.0382315 -0.0017175 2.11038e-20)
(0.0392896 -0.00165451 0)
(0.040317 -0.00159223 0)
(0.0413136 -0.0015308 -2.09423e-20)
(0.0422794 -0.00147035 0)
(0.0432144 -0.001411 0)
(0.0441188 -0.00135284 2.07703e-20)
(0.0449929 -0.00129598 0)
(0.0458369 -0.00124047 -2.065e-20)
(0.0466512 -0.0011864 4.11757e-20)
(0.0474362 -0.00113379 0)
(0.0481923 -0.0010827 0)
(0.0489202 -0.00103315 8.15803e-20)
(0.0496202 -0.00098517 8.13141e-20)
(0.050293 -0.00093876 8.10434e-20)
(0.0509392 -0.000893928 -4.03842e-20)
(0.0515593 -0.00085067 4.02442e-20)
(0.0521541 -0.000808978 1.20306e-19)
(0.0527241 -0.000768836 -7.99157e-20)
(0.05327 -0.000730225 -3.98112e-20)
(0.0537925 -0.000693121 0)
(0.0542922 -0.000657497 3.95114e-20)
(0.0547698 -0.000623323 -3.93582e-20)
(0.055226 -0.000590566 0)
(0.0556615 -0.000559192 0)
(0.0560768 -0.000529164 0)
(0.0564727 -0.000500445 3.87231e-20)
(0.0568498 -0.000472996 0)
(0.0572088 -0.000446779 -7.67847e-20)
(0.0575502 -0.000421753 0)
(0.0578747 -0.00039788 -7.61058e-20)
(0.0581828 -0.000375118 0)
(0.0584753 -0.00035343 7.54097e-20)
(0.0587526 -0.000332775 0)
(0.0590153 -0.000313115 -7.46965e-20)
(0.059264 -0.000294413 3.71668e-20)
(0.0594992 -0.000276629 0)
(0.0597215 -0.000259729 7.35953e-20)
(0.0599312 -0.000243674 3.661e-20)
(0.0601291 -0.000228431 3.64203e-20)
(0.0603154 -0.000213965 0)
(0.0604907 -0.000200242 3.60347e-20)
(0.0606555 -0.000187228 3.58391e-20)
(0.0608101 -0.000174892 0)
(0.060955 -0.000163201 -3.54417e-20)
(0.0610906 -0.000152122 7.04802e-20)
(0.0612173 -0.000141623 0)
(0.0613355 -0.00013167 3.48314e-20)
(0.0614455 -0.000122227 0)
(0.0615478 -0.000113256 -1.03245e-19)
(0.0616426 -0.000104728 0)
(0.0617301 -9.6666e-05 1.01975e-19)
(0.0618108 -8.91978e-05 3.37775e-20)
(0.061885 -8.22658e-05 -3.35612e-20)
(0.061953 -7.58466e-05 -6.66867e-20)
(0.0620153 -6.98802e-05 6.62475e-20)
(0.0620721 -6.43957e-05 0)
(0.0621234 -5.91799e-05 0)
(0.0621695 -5.41924e-05 0)
(0.0622108 -4.94561e-05 -1.93371e-19)
(0.0622474 -4.49861e-05 -6.40019e-20)
(0.0622795 -4.07938e-05 6.35438e-20)
(0.0623074 -3.68663e-05 0)
(0.0623313 -3.31849e-05 6.2619e-20)
(0.0623512 -2.97326e-05 -6.21527e-20)
(0.0623676 -2.64955e-05 -6.16836e-20)
(0.0623804 -2.34621e-05 0)
(0.0623899 -2.06225e-05 0)
(0.0623963 -1.7967e-05 0)
(0.0623997 -1.5486e-05 -5.97817e-20)
(0.0624002 -1.31694e-05 0)
(0.0623981 -1.10072e-05 1.17633e-19)
(0.0623933 -8.98944e-06 1.74991e-19)
(0.0623861 -7.10668e-06 -1.15684e-19)
(0.0623766 -5.3501e-06 0)
(0.0623649 -3.71205e-06 -5.68593e-20)
(0.062351 -2.18577e-06 0)
(0.0623352 -7.65392e-07 -1.11738e-19)
(0.0623175 5.54479e-07 5.53708e-20)
(0.062298 1.77894e-06 5.4871e-20)
(0.0622768 2.91307e-06 0)
(0.0622539 3.96192e-06 1.616e-19)
(0.0622295 4.93052e-06 -1.06724e-19)
(0.0622035 5.82366e-06 -5.28559e-20)
(0.0621762 6.64585e-06 0)
(0.0621475 7.40115e-06 -5.18395e-20)
(0.0621175 8.09337e-06 -1.53988e-19)
(0.0620863 8.72594e-06 0)
(0.0620539 9.30274e-06 -1.00611e-19)
(0.0620204 9.82793e-06 -9.95837e-20)
(0.0619857 1.03067e-05 -9.85544e-20)
(0.06195 1.07444e-05 0)
(0.0619133 1.11469e-05 0)
(0.0618757 1.15187e-05 0)
(0.0618371 1.18631e-05 4.72098e-20)
(0.0617977 1.21817e-05 4.66911e-20)
(0.0617573 1.24751e-05 0)
(0.0617162 1.27435e-05 9.13032e-20)
(0.0616742 1.2987e-05 9.02621e-20)
(0.0616315 1.32062e-05 0)
(0.061588 1.34022e-05 8.81775e-20)
(0.0615438 1.35763e-05 1.74268e-19)
(0.0614988 1.373e-05 -8.609e-20)
(0.0614532 1.38644e-05 -8.50453e-20)
(0.0614068 1.39806e-05 0)
(0.0613598 1.40792e-05 0)
(0.0613122 1.41608e-05 0)
(0.0612638 1.42252e-05 -8.08655e-20)
(0.0612149 1.42729e-05 7.98203e-20)
(0.0611653 1.43046e-05 1.57551e-19)
(0.0611151 1.43217e-05 -7.77313e-20)
(0.0610643 1.43272e-05 7.6687e-20)
(0.0610128 1.43244e-05 7.56436e-20)
(0.0609608 1.4317e-05 0)
(0.0609081 1.43083e-05 0)
(0.0608548 1.43007e-05 -7.25167e-20)
(0.0608009 1.42958e-05 0)
(0.0607464 1.42945e-05 0)
(0.0606913 1.42977e-05 1.38795e-19)
(0.0606356 1.43061e-05 0)
(0.0605793 1.43212e-05 6.73235e-20)
(0.0605222 1.43448e-05 -6.62886e-20)
(0.0604645 1.43794e-05 0)
(0.0604061 1.44286e-05 6.42224e-20)
(0.060347 1.44967e-05 0)
(0.060287 1.45894e-05 0)
(0.0602263 1.47138e-05 -6.11353e-20)
(0.0601645 1.48791e-05 1.20219e-19)
(0.0601018 1.50969e-05 -5.9086e-20)
(0.0600379 1.53826e-05 0)
(0.0599727 1.57556e-05 0)
(0.0599059 1.62412e-05 5.60267e-20)
(0.0598374 1.68727e-05 0)
(0.0597667 1.76936e-05 5.39983e-20)
(0.0596934 1.87615e-05 0)
(0.0596169 2.01532e-05 0)
(0.0595363 2.19726e-05 0)
(0.0594507 2.43612e-05 4.99716e-20)
(0.0593585 2.75154e-05 0)
(0.0592578 3.17131e-05 -4.79754e-20)
(0.059146 3.73571e-05 0)
(0.0590192 4.50499e-05 0)
(0.058872 5.57307e-05 9.0015e-20)
(0.0586963 7.0944e-05 -8.80537e-20)
(0.0584797 9.34275e-05 0)
(0.0582018 0.000128574 0)
(0.0578274 0.000188563 0)
(0.0572818 0.000307268 2.41022e-19)
(0.0565132 0.000575587 0)
(0.0544797 0.00129514 -1.53053e-19)
(7.45873e-05 -0.00103668 -6.04564e-24)
(0.000635233 -0.00262903 -8.75114e-20)
(0.00156343 -0.00381544 0)
(0.00278057 -0.00466482 8.74686e-20)
(0.00418981 -0.00524976 0)
(0.00573019 -0.00563572 0)
(0.00736085 -0.00587642 8.65582e-24)
(0.00905254 -0.00601356 -4.35997e-20)
(0.0107839 -0.00607809 -4.3563e-20)
(0.0125394 -0.00609218 -4.3505e-20)
(0.0143081 -0.0060712 0)
(0.0160817 -0.00602551 0)
(0.0178541 -0.00596198 4.33402e-20)
(0.0196207 -0.00588504 8.65497e-20)
(0.0213774 -0.00579761 -8.64119e-20)
(0.0231212 -0.00570159 0)
(0.0248491 -0.00559831 -8.61163e-20)
(0.0265586 -0.00548871 4.29722e-20)
(0.0282473 -0.00537357 0)
(0.0299133 -0.00525355 -8.56261e-20)
(0.0315545 -0.00512925 -4.2719e-20)
(0.0331691 -0.00500124 8.5271e-20)
(0.0347555 -0.00487009 4.25365e-20)
(0.0363122 -0.00473635 0)
(0.0378378 -0.00460056 -8.46998e-20)
(0.0393312 -0.00446325 -8.44998e-20)
(0.0407914 -0.00432492 0)
(0.0422173 -0.00418606 -8.40861e-20)
(0.0436083 -0.00404713 0)
(0.0449638 -0.00390858 -8.3655e-20)
(0.0462832 -0.00377081 -4.17119e-20)
(0.0475663 -0.00363419 0)
(0.0488128 -0.00349908 0)
(0.0500226 -0.00336578 0)
(0.0511957 -0.00323458 0)
(0.0523322 -0.00310573 0)
(0.0534322 -0.00297944 0)
(0.0544961 -0.00285591 -8.17674e-20)
(0.0555242 -0.0027353 1.22267e-19)
(0.056517 -0.00261775 0)
(0.0574748 -0.00250336 0)
(0.0583983 -0.00239222 0)
(0.059288 -0.00228439 5.25385e-24)
(0.0601445 -0.00217993 -8.0183e-20)
(0.0609686 -0.00207885 -1.59818e-19)
(0.0617609 -0.00198116 1.59257e-19)
(0.0625222 -0.00188687 7.93461e-20)
(0.0632531 -0.00179595 -7.90537e-20)
(0.0639545 -0.00170837 -3.78384e-24)
(0.0646271 -0.0016241 -7.84692e-20)
(0.0652718 -0.00154308 0)
(0.0658892 -0.00146526 -7.78651e-20)
(0.0664802 -0.00139057 -3.00429e-24)
(0.0670455 -0.00131895 0)
(0.0675861 -0.00125033 0)
(0.0681025 -0.00118462 7.66097e-20)
(0.0685957 -0.00112175 0)
(0.0690664 -0.00106164 0)
(0.0695153 -0.0010042 -7.56288e-20)
(0.0699432 -0.000949348 -1.50582e-19)
(0.0703508 -0.000897001 7.49498e-20)
(0.0707388 -0.000847074 0)
(0.071108 -0.000799482 -7.42593e-20)
(0.071459 -0.000754142 0)
(0.0717924 -0.000710971 -7.35559e-20)
(0.0721091 -0.000669887 -7.31942e-20)
(0.0724095 -0.00063081 1.45665e-19)
(0.0726944 -0.000593662 7.24671e-20)
(0.0729643 -0.000558364 0)
(0.0732198 -0.000524843 -1.43442e-19)
(0.0734615 -0.000493024 0)
(0.0736899 -0.000462836 -2.12882e-19)
(0.0739057 -0.00043421 -1.41151e-19)
(0.0741092 -0.000407078 -1.40372e-19)
(0.0743011 -0.000381375 1.39587e-19)
(0.0744818 -0.000357037 -2.0819e-19)
(0.0746518 -0.000334004 0)
(0.0748116 -0.000312218 0)
(0.0749615 -0.000291623 1.36372e-19)
(0.0751021 -0.000272168 2.03325e-19)
(0.0752337 -0.000253804 0)
(0.0753567 -0.000236469 -6.69435e-20)
(0.0754716 -0.000220058 0)
(0.0755786 -0.000204538 1.98297e-19)
(0.0756782 -0.000189845 -7.02229e-25)
(0.0757706 -0.000175986 6.42657e-25)
(0.0758563 -0.000163092 -1.29614e-19)
(0.0759357 -0.000151089 0)
(0.076009 -0.000139837 1.27856e-19)
(0.0760765 -0.000129151 -4.69157e-25)
(0.0761383 -0.000119051 0)
(0.0761947 -0.00010956 0)
(0.0762461 -0.000100665 0)
(0.0762926 -9.23274e-05 -1.23358e-19)
(0.0763346 -8.45103e-05 0)
(0.0763722 -7.71834e-05 0)
(0.0764056 -7.03196e-05 0)
(0.0764352 -6.38939e-05 0)
(0.0764609 -5.78826e-05 0)
(0.0764832 -5.22626e-05 -1.17792e-19)
(0.076502 -4.70118e-05 0)
(0.0765177 -4.21087e-05 -1.15898e-19)
(0.0765303 -3.75325e-05 -1.14945e-19)
(0.0765401 -3.32635e-05 1.13988e-19)
(0.0765471 -2.92829e-05 0)
(0.0765515 -2.55734e-05 1.12061e-19)
(0.0765535 -2.21189e-05 0)
(0.0765532 -1.89045e-05 1.10119e-19)
(0.0765506 -1.59161e-05 -1.09142e-19)
(0.076546 -1.31406e-05 -3.24487e-19)
(0.0765394 -1.05652e-05 0)
(0.0765309 -8.17773e-06 -3.18578e-19)
(0.0765206 -5.96647e-06 -1.05203e-19)
(0.0765086 -3.92031e-06 0)
(0.0764949 -2.02875e-06 -2.06431e-19)
(0.0764798 -2.82012e-07 -2.04435e-19)
(0.0764632 1.32911e-06 3.03651e-19)
(0.0764452 2.81315e-06 0)
(0.0764259 4.1785e-06 9.92089e-20)
(0.0764053 5.43336e-06 9.82015e-20)
(0.0763835 6.58639e-06 2.91576e-19)
(0.0763606 7.64625e-06 0)
(0.0763366 8.62152e-06 0)
(0.0763115 9.51981e-06 0)
(0.0762855 1.03475e-05 9.31357e-20)
(0.0762585 1.11095e-05 0)
(0.0762305 1.18097e-05 0)
(0.0762017 1.24512e-05 -9.00776e-20)
(0.0761721 1.30372e-05 -8.90558e-20)
(0.0761417 1.35707e-05 0)
(0.0761104 1.40551e-05 0)
(0.0760785 1.44938e-05 -1.7197e-19)
(0.0760458 1.489e-05 0)
(0.0760124 1.52469e-05 1.67869e-19)
(0.0759782 1.55672e-05 1.65817e-19)
(0.0759435 1.58533e-05 0)
(0.0759081 1.61072e-05 0)
(0.075872 1.63308e-05 -1.59658e-19)
(0.0758353 1.65257e-05 -5.8326e-27)
(0.075798 1.6694e-05 2.00888e-27)
(0.0757601 1.68383e-05 0)
(0.0757216 1.69619e-05 -3.02894e-19)
(0.0756825 1.7069e-05 0)
(0.0756428 1.7164e-05 0)
(0.0756026 1.7251e-05 0)
(0.0755617 1.73337e-05 1.43248e-19)
(0.0755203 1.74149e-05 0)
(0.0754783 1.74973e-05 -2.78313e-19)