/*--------------------------------*- C++ -*----------------------------------*\
  =========                 |
  \\      /  F ield         | OpenFOAM: The Open Source CFD Toolbox
   \\    /   O peration     | Website:  https://openfoam.org
    \\  /    A nd           | Version:  8
     \\/     M anipulation  |
\*---------------------------------------------------------------------------*/
FoamFile
{
    version     2.0;
    format      ascii;
    class       volScalarField;
    location    "0.58";
    object      p;
}
// * * * * * * * * * * * * * * * * * * * * * * * * * * * * * * * * * * * * * //

dimensions      [0 2 -2 0 0 0 0];

internalField   nonuniform List<scalar> 
12225
(
-0.00798763
-0.00795607
-0.0079224
-0.00789407
-0.00787816
-0.00787847
-0.00789842
-0.00794122
-0.00801048
-0.0081108
-0.00824883
-0.00843536
-0.00868907
-0.00904451
-0.00956729
-0.0103851
-0.011852
-0.0154647
-0.00798705
-0.00795884
-0.00792856
-0.00790353
-0.00789081
-0.00789423
-0.00791729
-0.00796327
-0.00803585
-0.00813972
-0.00828164
-0.00847235
-0.00872987
-0.00908598
-0.00959661
-0.0103617
-0.0115745
-0.0140105
-0.0079877
-0.00796252
-0.00793601
-0.00791477
-0.00790572
-0.00791272
-0.00793931
-0.0079888
-0.00806491
-0.00817234
-0.00831773
-0.00851132
-0.0087695
-0.00911914
-0.00960241
-0.0102819
-0.0111992
-0.0127247
-0.00798996
-0.00796679
-0.00794348
-0.00792567
-0.00791999
-0.00793026
-0.00795998
-0.00801244
-0.0080913
-0.00820106
-0.00834791
-0.00854096
-0.00879382
-0.00912677
-0.0095667
-0.0101427
-0.0108219
-0.0117727
-0.0079937
-0.00797165
-0.00795094
-0.00793619
-0.00793354
-0.00794671
-0.00797911
-0.00803393
-0.00811465
-0.00822539
-0.00837154
-0.00856052
-0.00880244
-0.00911034
-0.009497
-0.00996683
-0.0104617
-0.011045
-0.00799873
-0.0079771
-0.00795845
-0.00794642
-0.00794648
-0.0079622
-0.00799684
-0.00805341
-0.00813509
-0.00824544
-0.00838879
-0.00857051
-0.0087969
-0.00907407
-0.00940346
-0.00977346
-0.010123
-0.0104634
-0.00800482
-0.00798302
-0.00796592
-0.00795623
-0.00795867
-0.00797656
-0.00801294
-0.0080706
-0.0081523
-0.00826088
-0.00839943
-0.0085711
-0.00877845
-0.0090217
-0.00929417
-0.00957556
-0.00981187
-0.00999466
-0.00801167
-0.00798925
-0.00797318
-0.00796545
-0.00796987
-0.0079895
-0.00802709
-0.00808512
-0.00816586
-0.00827134
-0.00840328
-0.00856266
-0.0087487
-0.00895706
-0.00917606
-0.00938243
-0.00953324
-0.00961727
-0.00801886
-0.00799551
-0.00798002
-0.00797384
-0.00797984
-0.00800074
-0.00803898
-0.00809666
-0.00817549
-0.00827666
-0.00840053
-0.00854606
-0.0087098
-0.00888423
-0.00905535
-0.00920072
-0.00928895
-0.00931293
-0.00802588
-0.00800146
-0.00798617
-0.00798118
-0.00798835
-0.00801005
-0.00804837
-0.008105
-0.00818108
-0.00827694
-0.00839168
-0.0085226
-0.00866423
-0.00880728
-0.00893733
-0.00903492
-0.00907876
-0.00906728
-0.00803214
-0.00800662
-0.00799132
-0.00798718
-0.00799512
-0.00801716
-0.00805501
-0.00810997
-0.00818259
-0.00827243
-0.00837751
-0.00849382
-0.00861462
-0.00872988
-0.00882604
-0.00888743
-0.00890069
-0.00886917
-0.0080366
-0.00801018
-0.00799477
-0.00799113
-0.00799945
-0.00802139
-0.00805837
-0.0081113
-0.0081803
-0.00826428
-0.00836051
-0.00846413
-0.00856778
-0.00866142
-0.00873283
-0.00876962
-0.00876366
-0.00872179
-0.00803912
-0.00801262
-0.00799705
-0.00799379
-0.00800231
-0.00802389
-0.00805968
-0.00811026
-0.00817534
-0.00825332
-0.0083409
-0.00843274
-0.00852126
-0.00859696
-0.00864928
-0.00866877
-0.0086511
-0.00860352
-0.00803895
-0.00801326
-0.00799772
-0.0079948
-0.00800332
-0.00802419
-0.00805825
-0.00810581
-0.00816621
-0.00823744
-0.00831584
-0.00839581
-0.00847001
-0.00852981
-0.00856648
-0.00857328
-0.00854848
-0.00849863
-0.00803391
-0.00801023
-0.00799542
-0.00799289
-0.00800124
-0.00802096
-0.00805271
-0.00809656
-0.00815162
-0.0082157
-0.00828499
-0.00835402
-0.00841596
-0.00846328
-0.00848898
-0.00848829
-0.0084607
-0.00841146
-0.00802076
-0.0080009
-0.00798819
-0.00798644
-0.00799448
-0.00801262
-0.00804142
-0.00808089
-0.00813014
-0.00818702
-0.00824793
-0.00830782
-0.0083606
-0.00839982
-0.00841976
-0.00841678
-0.00839036
-0.00834383
-0.00799551
-0.00798206
-0.00797359
-0.00797343
-0.00798119
-0.00799733
-0.0080225
-0.0080569
-0.00809986
-0.00814959
-0.008203
-0.00825571
-0.00830245
-0.00833764
-0.00835629
-0.00835502
-0.00833245
-0.00828967
-0.00795464
-0.00795075
-0.00794916
-0.00795168
-0.00795921
-0.00797279
-0.00799341
-0.00802164
-0.00805728
-0.00809916
-0.00814487
-0.00819086
-0.00823263
-0.00826524
-0.00828398
-0.00828494
-0.00826551
-0.00822497
-0.00789939
-0.0079075
-0.00791441
-0.00791979
-0.00792606
-0.00793519
-0.00794862
-0.0079674
-0.007992
-0.00802204
-0.00805607
-0.00809152
-0.00812473
-0.00815138
-0.00816681
-0.00816646
-0.00814653
-0.00810315
-0.00785929
-0.00787722
-0.00789074
-0.00789772
-0.00790159
-0.0079046
-0.00790819
-0.00791343
-0.00792105
-0.00793115
-0.0079431
-0.00795535
-0.00796546
-0.00797027
-0.00796622
-0.0079495
-0.00791576
-0.00786118
-0.00784252
-0.00786543
-0.0078823
-0.00789019
-0.00789283
-0.00789218
-0.00788935
-0.00788514
-0.00788011
-0.00787438
-0.00786757
-0.00785863
-0.00784584
-0.0078269
-0.00779912
-0.00775955
-0.00770444
-0.00763012
-0.00784183
-0.00786646
-0.00788475
-0.00789359
-0.00789622
-0.00789398
-0.00788742
-0.00787691
-0.00786261
-0.00784441
-0.00782187
-0.00779412
-0.00775989
-0.00771748
-0.00766499
-0.00760034
-0.00752078
-0.00742318
-0.0078511
-0.00787529
-0.007894
-0.00790421
-0.00790813
-0.00790625
-0.00789862
-0.00788511
-0.00786546
-0.0078392
-0.00780567
-0.00776397
-0.00771299
-0.0076514
-0.0075778
-0.0074908
-0.00738868
-0.00726925
-0.00786481
-0.00788752
-0.00790648
-0.00791871
-0.00792501
-0.00792511
-0.00791855
-0.0079048
-0.00788321
-0.00785297
-0.00781313
-0.00776261
-0.00770029
-0.00762499
-0.00753557
-0.00743105
-0.00731053
-0.0071728
-0.00787894
-0.0079001
-0.00791975
-0.00793466
-0.00794417
-0.00794733
-0.00794333
-0.00793133
-0.00791036
-0.0078793
-0.00783691
-0.00778193
-0.00771306
-0.00762912
-0.00752907
-0.00741214
-0.00727792
-0.00712606
-0.00789109
-0.00791125
-0.00793239
-0.00795055
-0.00796378
-0.00797065
-0.00797009
-0.00796107
-0.0079424
-0.00791271
-0.00787051
-0.00781428
-0.00774255
-0.00765402
-0.00754762
-0.00742264
-0.00727888
-0.00711666
-0.00790007
-0.00792023
-0.00794375
-0.00796563
-0.00798284
-0.00799369
-0.00799701
-0.00799166
-0.00797631
-0.00794939
-0.00790918
-0.00785393
-0.00778195
-0.00769176
-0.0075822
-0.00745248
-0.00730245
-0.00713283
-0.00790542
-0.00792693
-0.00795379
-0.00797975
-0.00800108
-0.00801601
-0.00802341
-0.00802211
-0.0080107
-0.00798746
-0.00795047
-0.00789773
-0.00782733
-0.00773757
-0.00762713
-0.0074951
-0.00734123
-0.00716632
-0.0079073
-0.0079316
-0.00796262
-0.00799287
-0.00801832
-0.00803731
-0.00804882
-0.00805173
-0.00804461
-0.00802562
-0.00799265
-0.00794347
-0.00787593
-0.0077881
-0.00767843
-0.00754586
-0.00738996
-0.00721146
-0.00790679
-0.00793445
-0.00796922
-0.00800301
-0.00803179
-0.00805402
-0.00806883
-0.0080752
-0.00807167
-0.00805634
-0.00802695
-0.0079811
-0.00791642
-0.00783077
-0.00772244
-0.00759019
-0.00743345
-0.00725283
0.000802373
0.000830939
0.000841008
0.000814622
0.000749675
0.000647354
0.000509463
0.000338372
0.000136812
-9.24998e-05
-0.000347067
-0.000624879
-0.000924321
-0.0012442
-0.00158369
-0.00194216
-0.00231909
-0.00271381
-0.00312542
-0.00355252
-0.00399313
-0.00444448
-0.00490296
-0.00536396
-0.00582183
-0.00626984
-0.00670013
-0.0071038
-0.00747094
-0.00779074
-0.00805168
-0.00824171
-0.00834857
-0.00836004
-0.00826435
-0.00805053
-0.00770881
-0.00723106
-0.00661114
-0.00584529
-0.00493242
-0.00387439
-0.00267616
-0.00134616
0.000104146
0.00166323
0.0033106
0.00502697
0.00679024
0.00857617
0.0103591
0.0121126
0.0138097
0.0154234
0.0169274
0.0182963
0.0195058
0.0205335
0.0213588
0.0219635
0.0223315
0.0224506
0.0223113
0.0219075
0.0212378
0.0203053
0.0191184
0.0176909
0.0160424
0.0141984
0.0121902
0.0100543
0.00783187
0.00556745
0.00330778
0.00109976
-0.00101097
-0.00298185
-0.00477682
-0.0063657
-0.00772648
-0.0088465
-0.00972259
-0.0103608
-0.0107757
-0.0109886
-0.0110259
-0.0109173
-0.0106932
-0.0103833
-0.010015
-0.00961195
-0.00919397
-0.00877667
-0.00837187
-0.00798814
-0.00763154
-0.00730632
-0.0070153
-0.00676014
-0.0065413
-0.00635797
-0.00620804
-0.00608821
-0.00599426
-0.00592141
-0.00586473
-0.00581944
-0.00578121
-0.00574624
-0.00571138
-0.00567408
-0.00563241
-0.00558501
-0.00553104
-0.00547011
-0.00540227
-0.0053279
-0.00524767
-0.00516248
-0.00507336
-0.00498142
-0.00488782
-0.00479367
-0.00469999
-0.00460772
-0.00451764
-0.00443042
-0.00434655
-0.0042664
-0.0041902
-0.00411807
-0.00405001
-0.00398593
-0.00392568
-0.00386905
-0.0038158
-0.00376564
-0.00371827
-0.0036734
-0.00363073
-0.00358997
-0.00355082
-0.00351303
-0.00347634
-0.00344052
-0.00340537
-0.00337068
-0.00333629
-0.00330203
-0.00326777
-0.00323337
-0.00319875
-0.0031638
-0.00312843
-0.0030926
-0.00305623
-0.00301928
-0.0029817
-0.00294347
-0.00290456
-0.00286494
-0.00282458
-0.00278345
-0.0027415
-0.00269866
-0.00265484
-0.00260988
-0.00256358
-0.0025156
-0.00246558
-0.00241313
-0.00235778
-0.00229904
-0.00223664
-0.00217042
-0.00210044
-0.00202847
-0.00195862
-0.00186536
0.000808005
0.000838326
0.000848561
0.000822557
0.000761274
0.000667316
0.000542678
0.000389368
0.000209526
5.21233e-06
-0.000221806
-0.000470033
-0.000738385
-0.00102614
-0.00133287
-0.00165831
-0.00200227
-0.00236442
-0.00274421
-0.00314067
-0.00355227
-0.00397677
-0.00441113
-0.00485136
-0.00529247
-0.00572839
-0.00615193
-0.00655478
-0.00692754
-0.00725982
-0.00754036
-0.00775722
-0.00789803
-0.00795031
-0.00790179
-0.00774084
-0.00745687
-0.00704078
-0.00648538
-0.0057858
-0.00493988
-0.00394849
-0.00281577
-0.00154859
-0.000155838
0.00134523
0.00294033
0.00460916
0.00632923
0.00807629
0.00982458
0.0115474
0.0132175
0.0148079
0.0162919
0.0176438
0.0188394
0.019856
0.020673
0.0212721
0.0216372
0.0217554
0.0216173
0.0212173
0.0205543
0.0196322
0.0184596
0.0170508
0.0154257
0.0136105
0.0116369
0.00954202
0.00736734
0.00515781
0.00296022
0.000821397
-0.00121418
-0.00310299
-0.00481324
-0.00631672
-0.00759383
-0.00863469
-0.0094391
-0.0100159
-0.0103818
-0.0105598
-0.010577
-0.0104628
-0.0102465
-0.0099559
-0.00961593
-0.00924778
-0.00886864
-0.00849176
-0.00812693
-0.00778111
-0.00745918
-0.00716453
-0.00689956
-0.00666575
-0.0064637
-0.00629297
-0.00615199
-0.00603815
-0.00594794
-0.0058773
-0.00582195
-0.00577765
-0.00574046
-0.00570686
-0.00567383
-0.0056389
-0.00560011
-0.00555602
-0.00550569
-0.00544861
-0.00538471
-0.00531424
-0.00523779
-0.00515615
-0.00507029
-0.0049813
-0.00489027
-0.00479829
-0.00470642
-0.00461558
-0.00452659
-0.00444014
-0.00435676
-0.00427685
-0.00420069
-0.00412841
-0.00406006
-0.00399558
-0.00393485
-0.00387768
-0.00382385
-0.00377308
-0.00372511
-0.00367964
-0.00363638
-0.00359504
-0.00355535
-0.00351705
-0.00347988
-0.00344363
-0.00340807
-0.00337301
-0.00333827
-0.00330371
-0.00326917
-0.00323453
-0.00319969
-0.00316454
-0.00312901
-0.00309303
-0.00305653
-0.00301947
-0.0029818
-0.00294349
-0.00290451
-0.00286482
-0.0028244
-0.00278321
-0.00274119
-0.00269829
-0.00265438
-0.00260933
-0.00256291
-0.00251488
-0.0024649
-0.00241256
-0.00235748
-0.0022993
-0.00223772
-0.0021727
-0.00210445
-0.00203496
-0.00196797
-0.00187891
0.000979645
0.00099871
0.000996803
0.000961074
0.000894057
0.000799082
0.00067835
0.000533697
0.000366872
0.00017945
-2.73449e-05
-0.000252709
-0.000496263
-0.000758014
-0.00103828
-0.00133756
-0.00165645
-0.00199541
-0.00235468
-0.0027341
-0.00313293
-0.00354973
-0.0039822
-0.00442706
-0.0048799
-0.00533511
-0.0057858
-0.00622373
-0.00663937
-0.0070219
-0.00735943
-0.0076391
-0.00784745
-0.00797069
-0.00799516
-0.00790776
-0.00769645
-0.00735073
-0.00686217
-0.00622486
-0.00543589
-0.0044956
-0.00340735
-0.00217717
-0.000816368
0.000660456
0.00223581
0.00388913
0.00559739
0.00733558
0.00907724
0.010795
0.012461
0.0140479
0.0155287
0.0168776
0.0180702
0.019084
0.0198987
0.0204959
0.0208599
0.020978
0.020841
0.0204429
0.0197826
0.018864
0.0176956
0.0162918
0.014673
0.0128656
0.010902
0.00882022
0.00666296
0.00447641
0.00230872
0.000208284
-0.00177818
-0.00361107
-0.00525193
-0.00667548
-0.00786438
-0.00881098
-0.00951822
-0.00999889
-0.010274
-0.0103708
-0.01032
-0.0101535
-0.009902
-0.00959327
-0.00925084
-0.00889356
-0.00853565
-0.00818718
-0.00785483
-0.00754284
-0.00725387
-0.0069897
-0.00675169
-0.00654083
-0.00635766
-0.00620197
-0.00607267
-0.00596771
-0.0058842
-0.00581868
-0.00576741
-0.00572662
-0.00569272
-0.00566246
-0.00563295
-0.00560179
-0.00556702
-0.00552713
-0.00548111
-0.00542834
-0.00536866
-0.00530223
-0.00522956
-0.00515139
-0.00506864
-0.00498238
-0.00489369
-0.00480369
-0.00471341
-0.00462382
-0.00453576
-0.00444996
-0.00436697
-0.00428724
-0.00421107
-0.00413863
-0.00406999
-0.00400512
-0.00394393
-0.00388624
-0.00383186
-0.00378052
-0.00373197
-0.00368592
-0.0036421
-0.00360022
-0.00356001
-0.00352121
-0.00348358
-0.00344689
-0.00341092
-0.00337549
-0.00334042
-0.00330554
-0.00327072
-0.00323583
-0.00320076
-0.00316542
-0.00312971
-0.00309357
-0.00305694
-0.00301976
-0.00298198
-0.00294358
-0.00290452
-0.00286476
-0.00282427
-0.00278302
-0.00274094
-0.00269797
-0.002654
-0.00260889
-0.00256244
-0.00251441
-0.0024645
-0.00241237
-0.00235767
-0.0023001
-0.00223947
-0.00217581
-0.00210939
-0.00204233
-0.00197863
-0.00189238
0.00133172
0.00132317
0.00129334
0.00123641
0.00115437
0.00104962
0.000923961
0.000778864
0.000615621
0.000435163
0.000237939
2.38865e-05
-0.000207565
-0.000457451
-0.000727182
-0.00101842
-0.00133293
-0.00167238
-0.00203819
-0.0024313
-0.00285199
-0.00329966
-0.00377267
-0.00426812
-0.00478167
-0.00530746
-0.00583792
-0.00636382
-0.00687421
-0.0073566
-0.00779709
-0.00818072
-0.00849177
-0.00871428
-0.00883248
-0.00883142
-0.00869745
-0.00841885
-0.00798634
-0.00739363
-0.00663781
-0.00571921
-0.00464104
-0.00341137
-0.00204323
-0.000552323
0.0010423
0.00271863
0.00445222
0.00621668
0.00798431
0.00972672
0.0114154
0.0130222
0.01452
0.0158829
0.0170868
0.0181094
0.0189307
0.0195328
0.0199005
0.0200213
0.0198862
0.0194893
0.0188285
0.0179071
0.0167334
0.0153215
0.0136915
0.01187
0.00989003
0.00779049
0.00561544
0.00341288
0.00123319
-0.000872854
-0.00285629
-0.00467203
-0.00628034
-0.00765297
-0.0087718
-0.00962937
-0.0102301
-0.01059
-0.010735
-0.0106986
-0.0105182
-0.0102324
-0.00987759
-0.00948528
-0.00908083
-0.00868279
-0.0083033
-0.00794911
-0.00762303
-0.00732537
-0.00705527
-0.00681174
-0.00659414
-0.00640225
-0.00623604
-0.0060951
-0.00597847
-0.00588435
-0.00581016
-0.00575274
-0.00570861
-0.00567425
-0.00564628
-0.00562159
-0.00559741
-0.00557135
-0.00554145
-0.00550619
-0.0054645
-0.00541574
-0.0053597
-0.00529652
-0.00522669
-0.00515096
-0.00507028
-0.00498572
-0.00489841
-0.00480948
-0.00472002
-0.00463102
-0.00454336
-0.00445778
-0.00437489
-0.00429513
-0.00421884
-0.0041462
-0.0040773
-0.00401213
-0.0039506
-0.00389255
-0.00383778
-0.00378605
-0.0037371
-0.00369066
-0.00364645
-0.0036042
-0.00356362
-0.00352448
-0.00348652
-0.00344951
-0.00341326
-0.00337755
-0.00334222
-0.00330711
-0.00327208
-0.003237
-0.00320175
-0.00316625
-0.0031304
-0.00309413
-0.00305738
-0.0030201
-0.00298224
-0.00294377
-0.00290463
-0.00286482
-0.00282427
-0.00278297
-0.00274084
-0.00269783
-0.00265384
-0.00260872
-0.00256229
-0.00251434
-0.00246459
-0.00241274
-0.00235848
-0.00230157
-0.00224187
-0.00217946
-0.0021146
-0.00204937
-0.00198744
-0.00190485
0.0018269
0.00177788
0.00170743
0.00162009
0.00151633
0.00139592
0.00125946
0.00110752
0.000940306
0.000757621
0.00055876
0.000342461
0.000106887
-0.000150332
-0.000432007
-0.000741238
-0.00108122
-0.00145501
-0.00186527
-0.00231404
-0.00280237
-0.00333014
-0.00389574
-0.00449584
-0.0051252
-0.00577652
-0.00644034
-0.00710514
-0.00775736
-0.0083817
-0.00896139
-0.00947864
-0.00991509
-0.0102524
-0.0104729
-0.01056
-0.0104991
-0.0102778
-0.00988685
-0.00932019
-0.00857535
-0.00765317
-0.00655937
-0.0053046
-0.00390283
-0.00237159
-0.000731822
0.00099258
0.00277533
0.00458837
0.00640256
0.00818829
0.00991616
0.0115575
0.013085
0.0144729
0.0156973
0.0167365
0.0175712
0.0181842
0.0185606
0.0186878
0.0185574
0.0181633
0.0175025
0.0165779
0.0153972
0.0139736
0.012327
0.0104838
0.00847716
0.00634675
0.00413785
0.00190025
-0.000313361
-0.00244938
-0.00445551
-0.00628308
-0.00788812
-0.00923792
-0.0103094
-0.0110931
-0.0115924
-0.0118241
-0.0118173
-0.0116111
-0.0112511
-0.0107852
-0.0102593
-0.00971322
-0.0091787
-0.00867761
-0.00822247
-0.00781788
-0.00746272
-0.00715256
-0.00688176
-0.00664509
-0.00643861
-0.0062598
-0.00610717
-0.00597957
-0.00587559
-0.0057933
-0.00573013
-0.00568292
-0.00564826
-0.00562267
-0.00560281
-0.0055856
-0.00556828
-0.00554848
-0.0055242
-0.00549393
-0.00545657
-0.0054115
-0.0053585
-0.00529778
-0.00522987
-0.00515558
-0.00507592
-0.00499204
-0.00490513
-0.00481639
-0.00472695
-0.00463786
-0.00455003
-0.00446423
-0.00438109
-0.00430106
-0.00422449
-0.00415158
-0.00408241
-0.00401697
-0.00395518
-0.00389687
-0.00384185
-0.00378988
-0.00374069
-0.00369401
-0.00364956
-0.00360707
-0.00356628
-0.00352692
-0.00348875
-0.00345154
-0.00341509
-0.00337921
-0.00334371
-0.00330844
-0.00327325
-0.00323803
-0.00320265
-0.00316703
-0.00313107
-0.0030947
-0.00305786
-0.0030205
-0.00298257
-0.00294403
-0.00290484
-0.00286497
-0.00282438
-0.00278304
-0.00274089
-0.00269786
-0.00265386
-0.00260877
-0.00256243
-0.00251462
-0.0024651
-0.00241361
-0.00235989
-0.0023037
-0.00224494
-0.0021837
-0.00212025
-0.0020564
-0.00199516
-0.00191745
0.0024157
0.00231837
0.00220042
0.00207834
0.00194903
0.00180944
0.00165788
0.00149305
0.00131345
0.00111722
0.000902066
0.000665167
0.000403112
0.00011195
-0.0002127
-0.000575458
-0.000980918
-0.00143335
-0.00193633
-0.0024924
-0.00310271
-0.00376664
-0.00448151
-0.00524235
-0.0060417
-0.00686958
-0.00771352
-0.00855869
-0.00938819
-0.0101834
-0.0109246
-0.011591
-0.0121622
-0.0126178
-0.0129389
-0.013108
-0.01311
-0.0129329
-0.0125676
-0.0120089
-0.0112553
-0.0103098
-0.00918049
-0.00787934
-0.0064222
-0.00482874
-0.00312209
-0.00132832
0.000524163
0.00240539
0.00428448
0.00613046
0.00791286
0.00960243
0.0111716
0.0125947
0.0138484
0.0149119
0.0157665
0.0163959
0.016786
0.016925
0.0168036
0.016416
0.015759
0.0148344
0.013649
0.0122154
0.0105526
0.00868664
0.00665078
0.00448514
0.00223605
-4.51384e-05
-0.00230361
-0.00448304
-0.0065278
-0.00838554
-0.0100095
-0.0113593
-0.0124074
-0.0131393
-0.0135548
-0.0136684
-0.0135095
-0.0131202
-0.0125527
-0.0118642
-0.0111122
-0.0103489
-0.0096166
-0.0089456
-0.00835291
-0.00784392
-0.00741505
-0.00705724
-0.00675927
-0.00651038
-0.00630182
-0.00612733
-0.00598282
-0.00586546
-0.00577278
-0.00570215
-0.00565062
-0.0056148
-0.00559107
-0.00557581
-0.00556557
-0.00555718
-0.00554781
-0.00553501
-0.00551678
-0.00549157
-0.0054583
-0.0054164
-0.00536572
-0.00530656
-0.00523955
-0.00516563
-0.00508591
-0.00500167
-0.00491419
-0.00482475
-0.00473456
-0.0046447
-0.00455614
-0.00446967
-0.00438593
-0.00430539
-0.00422838
-0.0041551
-0.00408563
-0.00401994
-0.00395794
-0.00389947
-0.0038443
-0.0037922
-0.0037429
-0.00369611
-0.00365157
-0.00360898
-0.00356808
-0.00352862
-0.00349035
-0.00345304
-0.00341649
-0.0033805
-0.0033449
-0.00330953
-0.00327425
-0.00323893
-0.00320347
-0.00316776
-0.00313172
-0.00309528
-0.00305837
-0.00302095
-0.00298296
-0.00294436
-0.00290513
-0.00286522
-0.00282459
-0.00278322
-0.00274105
-0.00269803
-0.00265406
-0.00260903
-0.00256281
-0.0025152
-0.002466
-0.00241496
-0.00236184
-0.00230644
-0.00224866
-0.00218858
-0.00212644
-0.00206372
-0.00200259
-0.00193049
0.00303333
0.00288509
0.0027168
0.00255852
0.00240323
0.00224275
0.00207224
0.00188791
0.00168592
0.00146228
0.0012127
0.000932474
0.000616447
0.000259005
-0.000145743
-0.000603713
-0.0011205
-0.00170097
-0.0023488
-0.00306608
-0.00385284
-0.00470674
-0.00562278
-0.00659309
-0.00760698
-0.00865091
-0.00970876
-0.0107621
-0.0117908
-0.012773
-0.0136865
-0.0145083
-0.0152163
-0.015789
-0.0162066
-0.0164514
-0.0165083
-0.0163656
-0.0160149
-0.0154518
-0.0146765
-0.0136938
-0.0125133
-0.0111487
-0.00961795
-0.00794297
-0.00614938
-0.00426573
-0.00232283
-0.000352977
0.00161091
0.00353607
0.00539075
0.00714481
0.00877027
0.0102417
0.0115363
0.012634
0.0135172
0.0141707
0.0145815
0.0147384
0.0146321
0.0142568
0.0136091
0.0126894
0.011504
0.0100642
0.00838842
0.00650212
0.0044385
0.00223808
-5.18938e-05
-0.00237867
-0.00468548
-0.00691354
-0.00900424
-0.0109016
-0.0125549
-0.01392
-0.0149639
-0.0156651
-0.0160184
-0.016034
-0.0157383
-0.015173
-0.0143935
-0.0134643
-0.0124535
-0.0114268
-0.0104408
-0.00953848
-0.00874648
-0.00807534
-0.00752218
-0.00707497
-0.00671712
-0.00643156
-0.0062034
-0.0060212
-0.00587686
-0.0057647
-0.00568038
-0.00561993
-0.0055795
-0.00555518
-0.00554289
-0.00553865
-0.00553875
-0.0055398
-0.00553881
-0.00553321
-0.00552094
-0.00550043
-0.00547065
-0.00543109
-0.00538174
-0.00532304
-0.00525578
-0.00518106
-0.00510017
-0.00501449
-0.00492545
-0.00483443
-0.00474272
-0.00465146
-0.00456164
-0.00447409
-0.00438943
-0.00430815
-0.00423056
-0.00415684
-0.00408705
-0.00402114
-0.003959
-0.00390044
-0.00384524
-0.00379313
-0.00374384
-0.00369707
-0.00365255
-0.00360998
-0.0035691
-0.00352964
-0.00349137
-0.00345405
-0.00341748
-0.00338147
-0.00334583
-0.00331042
-0.0032751
-0.00323973
-0.00320422
-0.00316846
-0.00313237
-0.00309587
-0.00305892
-0.00302145
-0.00298341
-0.00294477
-0.0029055
-0.00286555
-0.0028249
-0.00278351
-0.00274134
-0.00269833
-0.00265441
-0.00260949
-0.00256343
-0.00251608
-0.00246725
-0.00241673
-0.00236429
-0.00230974
-0.00225297
-0.00219403
-0.00213313
-0.00207132
-0.00200999
-0.00194367
0.00360053
0.00340248
0.00318645
0.00299416
0.00281354
0.0026307
0.00243692
0.00222525
0.00198904
0.00172178
0.00141695
0.00106786
0.000667585
0.000209017
-0.000314896
-0.000910821
-0.00158459
-0.00234074
-0.00318194
-0.00410863
-0.00511854
-0.00620646
-0.00736405
-0.00857985
-0.00983939
-0.0111254
-0.0124183
-0.0136964
-0.0149366
-0.0161149
-0.0172068
-0.0181881
-0.0190353
-0.0197262
-0.0202403
-0.0205599
-0.0206698
-0.0205584
-0.0202177
-0.0196441
-0.0188395
-0.0178097
-0.0165657
-0.015123
-0.0135018
-0.0117266
-0.00982567
-0.00783041
-0.00577448
-0.00369295
-0.0016213
0.000405508
0.00235392
0.00419257
0.00589285
0.00742927
0.00877956
0.00992458
0.010848
0.0115359
0.0119764
0.0121594
0.0120761
0.0117203
0.0110886
0.0101803
0.00900072
0.00756033
0.00587655
0.00397442
0.00188704
-0.000344675
-0.00267261
-0.00504265
-0.00739622
-0.00967227
-0.0118095
-0.0137487
-0.0154355
-0.0168223
-0.0178715
-0.018556
-0.0188644
-0.0188016
-0.0183894
-0.0176665
-0.0166876
-0.0155208
-0.0142421
-0.0129292
-0.0116535
-0.0104737
-0.0094302
-0.00854359
-0.00781598
-0.00723543
-0.00678156
-0.00643118
-0.00616253
-0.0059577
-0.00580322
-0.00568934
-0.00560882
-0.00555567
-0.00552462
-0.00551076
-0.00550935
-0.00551585
-0.00552611
-0.0055364
-0.00554348
-0.00554462
-0.00553765
-0.00552099
-0.00549369
-0.00545535
-0.00540612
-0.00534663
-0.00527788
-0.00520116
-0.00511795
-0.0050298
-0.00493829
-0.0048449
-0.004751
-0.00465778
-0.00456628
-0.0044773
-0.0043915
-0.00430932
-0.00423106
-0.00415686
-0.00408676
-0.00402069
-0.00395848
-0.00389994
-0.00384481
-0.00379281
-0.00374365
-0.00369703
-0.00365264
-0.00361021
-0.00356945
-0.0035301
-0.00349192
-0.00345467
-0.00341815
-0.00338218
-0.00334657
-0.00331117
-0.00327584
-0.00324047
-0.00320493
-0.00316915
-0.00313303
-0.00309651
-0.00305952
-0.00302201
-0.00298394
-0.00294527
-0.00290596
-0.00286599
-0.00282532
-0.00278392
-0.00274176
-0.00269878
-0.00265493
-0.00261013
-0.00256427
-0.00251723
-0.00246882
-0.00241886
-0.00236715
-0.00231348
-0.00225773
-0.00219989
-0.00214013
-0.00207906
-0.00201732
-0.0019565
0.00403139
0.00378926
0.00353096
0.00330839
0.00310364
0.00289666
0.00267438
0.00242632
0.00214277
0.00181453
0.00143281
0.000989015
0.000474692
-0.000118343
-0.000797714
-0.00157006
-0.00244053
-0.00341225
-0.00448586
-0.0056591
-0.0069265
-0.00827932
-0.00970549
-0.0111898
-0.0127142
-0.014258
-0.0157987
-0.0173121
-0.0187728
-0.0201549
-0.0214326
-0.0225803
-0.0235734
-0.0243889
-0.0250057
-0.0254053
-0.0255722
-0.0254945
-0.0251643
-0.0245787
-0.0237404
-0.0226561
-0.0213379
-0.0198035
-0.0180754
-0.0161807
-0.0141509
-0.0120204
-0.00982628
-0.00760694
-0.005401
-0.00324623
-0.00117854
0.000768984
0.00256667
0.00418872
0.00561324
0.00682204
0.00780014
0.00853519
0.00901681
0.00923607
0.00918512
0.00885763
0.00824984
0.00736081
0.00619431
0.00476012
0.00307483
0.00116299
-0.000942329
-0.00319978
-0.00556035
-0.00796856
-0.0103641
-0.0126839
-0.014864
-0.0168425
-0.0185616
-0.0199703
-0.021027
-0.0217014
-0.0219754
-0.0218488
-0.0213385
-0.0204784
-0.0193206
-0.0179329
-0.0163956
-0.014795
-0.0132157
-0.0117323
-0.0104013
-0.00925737
-0.00831198
-0.00755719
-0.00697156
-0.00652709
-0.00619526
-0.00595097
-0.00577425
-0.00565011
-0.00556739
-0.00551736
-0.00549273
-0.00548718
-0.00549502
-0.00551096
-0.00553026
-0.00554875
-0.00556283
-0.00556956
-0.00556668
-0.00555261
-0.00552644
-0.00548794
-0.00543747
-0.00537587
-0.00530438
-0.00522452
-0.00513798
-0.00504648
-0.00495174
-0.00485534
-0.00475874
-0.00466317
-0.00456968
-0.00447908
-0.00439201
-0.00430887
-0.00422992
-0.00415529
-0.00408495
-0.00401878
-0.00395662
-0.0038982
-0.00384326
-0.00379149
-0.00374258
-0.00369621
-0.00365208
-0.00360988
-0.00356933
-0.00353017
-0.00349215
-0.00345504
-0.00341863
-0.00338275
-0.00334721
-0.00331186
-0.00327657
-0.00324121
-0.00320568
-0.00316989
-0.00313376
-0.00309722
-0.0030602
-0.00302267
-0.00298457
-0.00294586
-0.00290653
-0.00286653
-0.00282585
-0.00278445
-0.0027423
-0.00269937
-0.00265561
-0.00261095
-0.00256532
-0.0025186
-0.00247064
-0.00242127
-0.0023703
-0.00231751
-0.00226274
-0.00220592
-0.00214718
-0.00208672
-0.00202445
-0.00196847
0.004241
0.00396389
0.00367176
0.00342381
0.00319621
0.00296285
0.00270623
0.00241228
0.00206824
0.00166232
0.00118363
0.000621949
-3.22798e-05
-0.000787752
-0.00165195
-0.00263065
-0.00372745
-0.00494324
-0.0062758
-0.00771961
-0.00926566
-0.0109015
-0.0126116
-0.0143773
-0.0161775
-0.0179888
-0.0197864
-0.021544
-0.0232345
-0.0248305
-0.0263045
-0.0276297
-0.0287802
-0.0297316
-0.0304617
-0.0309509
-0.0311829
-0.0311449
-0.0308286
-0.0302319
-0.0293574
-0.0282123
-0.0268106
-0.0251716
-0.0233203
-0.0212867
-0.0191055
-0.0168148
-0.0144556
-0.01207
-0.00970039
-0.00738814
-0.00517211
-0.00308776
-0.00116634
0.00056562
0.00208636
0.00337855
0.00442868
0.00522613
0.00576232
0.00602986
0.00602208
0.00573291
0.00515856
0.00429769
0.00315279
0.00173287
5.38116e-05
-0.00186021
-0.00397613
-0.0062521
-0.00863817
-0.0110776
-0.0135083
-0.0158651
-0.018082
-0.0200943
-0.0218413
-0.0232689
-0.0243316
-0.024997
-0.0252415
-0.0250603
-0.0244655
-0.0234865
-0.0221711
-0.0205851
-0.0188094
-0.0169354
-0.0150576
-0.0132644
-0.0116288
-0.0102014
-0.00900663
-0.00804442
-0.0072956
-0.00672964
-0.00631221
-0.00601103
-0.005799
-0.00565499
-0.005563
-0.00551082
-0.00548857
-0.00548819
-0.00550268
-0.00552585
-0.00555222
-0.00557705
-0.00559639
-0.00560702
-0.00560656
-0.00559343
-0.00556682
-0.00552668
-0.00547357
-0.0054086
-0.00533325
-0.00524927
-0.00515857
-0.00506304
-0.00496453
-0.00486473
-0.00476513
-0.00466702
-0.00457143
-0.00447917
-0.00439083
-0.00430679
-0.00422725
-0.00415228
-0.00408182
-0.0040157
-0.0039537
-0.00389555
-0.00384092
-0.0037895
-0.00374094
-0.00369493
-0.00365113
-0.00360924
-0.00356898
-0.00353007
-0.00349226
-0.00345534
-0.00341909
-0.00338333
-0.00334789
-0.00331261
-0.00327737
-0.00324205
-0.00320654
-0.00317075
-0.00313461
-0.00309805
-0.00306101
-0.00302345
-0.00298532
-0.00294659
-0.00290722
-0.0028672
-0.00282651
-0.0027851
-0.00274298
-0.0027001
-0.00265643
-0.00261193
-0.00256653
-0.00252014
-0.00247264
-0.00242386
-0.00237359
-0.00232164
-0.00226778
-0.00221187
-0.00215399
-0.00209404
-0.00203117
-0.00197914
0.00415698
0.00385668
0.0035412
0.00327352
0.00302436
0.00276227
0.00246565
0.00211711
0.00170107
0.00120346
0.000611598
-8.59231e-05
-0.00089925
-0.00183699
-0.00290583
-0.00411004
-0.005451
-0.00692689
-0.00853234
-0.0102585
-0.0120928
-0.0140197
-0.0160205
-0.0180737
-0.0201559
-0.0222417
-0.0243041
-0.0263151
-0.028246
-0.0300677
-0.0317511
-0.0332675
-0.0345893
-0.0356903
-0.0365464
-0.0371367
-0.0374434
-0.0374525
-0.037155
-0.0365492
-0.0356369
-0.0344265
-0.032933
-0.0311776
-0.0291879
-0.0269968
-0.0246425
-0.022167
-0.0196154
-0.0170344
-0.0144707
-0.0119698
-0.00957435
-0.00732279
-0.00524863
-0.00337969
-0.001738
-0.000340189
0.00080165
0.00167884
0.00228487
0.00261425
0.0026618
0.00242238
0.0018919
0.00106885
-4.49322e-05
-0.00144149
-0.00310544
-0.00501294
-0.00713082
-0.00941669
-0.0118197
-0.0142817
-0.0167392
-0.0191251
-0.0213712
-0.0234104
-0.0251793
-0.026621
-0.0276869
-0.0283414
-0.0285583
-0.0283278
-0.0276582
-0.0265749
-0.0251216
-0.0233607
-0.0213718
-0.0192483
-0.0170906
-0.0149983
-0.0130588
-0.0113387
-0.00987738
-0.00868562
-0.00774982
-0.00703962
-0.00651667
-0.00614221
-0.00588195
-0.0057081
-0.00559919
-0.00553884
-0.00551422
-0.00551508
-0.00553287
-0.00556031
-0.00559108
-0.00561984
-0.00564215
-0.00565457
-0.00565456
-0.00564055
-0.00561186
-0.0055686
-0.00551157
-0.00544213
-0.00536202
-0.00527321
-0.0051778
-0.00507786
-0.00497532
-0.00487197
-0.00476934
-0.00466872
-0.00457113
-0.00447735
-0.00438791
-0.00430314
-0.00422319
-0.00414807
-0.00407766
-0.00401176
-0.00395009
-0.00389233
-0.00383815
-0.00378718
-0.00373909
-0.00369351
-0.00365012
-0.00360861
-0.00356868
-0.00353006
-0.00349251
-0.0034558
-0.00341973
-0.00338411
-0.00334877
-0.00331357
-0.00327839
-0.00324309
-0.0032076
-0.00317181
-0.00313566
-0.00309907
-0.003062
-0.0030244
-0.00298624
-0.00294747
-0.00290807
-0.00286802
-0.0028273
-0.0027859
-0.00274379
-0.00270096
-0.00265739
-0.00261304
-0.00256787
-0.00252181
-0.00247473
-0.00242649
-0.00237688
-0.00232567
-0.0022726
-0.00221747
-0.00216027
-0.00210074
-0.00203728
-0.00198817
0.00372964
0.00341966
0.00309262
0.00281137
0.00254226
0.00224966
0.0019086
0.00149883