/*--------------------------------*- C++ -*----------------------------------*\
  =========                 |
  \\      /  F ield         | OpenFOAM: The Open Source CFD Toolbox
   \\    /   O peration     | Website:  https://openfoam.org
    \\  /    A nd           | Version:  8
     \\/     M anipulation  |
\*---------------------------------------------------------------------------*/
FoamFile
{
    version     2.0;
    format      ascii;
    class       surfaceScalarField;
    location    "0.58";
    object      phi;
}
// * * * * * * * * * * * * * * * * * * * * * * * * * * * * * * * * * * * * * //

dimensions      [0 3 -1 0 0 0 0];

internalField   nonuniform List<scalar> 
24170
(
-3.30744e-12
3.30744e-12
3.01305e-12
-6.3205e-12
1.88567e-11
-1.58437e-11
4.29635e-11
-2.41068e-11
7.42085e-11
-3.1245e-11
1.11859e-10
-3.76506e-11
1.55458e-10
-4.35989e-11
2.04799e-10
-4.93414e-11
2.59978e-10
-5.51785e-11
3.21529e-10
-6.15509e-11
3.90633e-10
-6.91046e-11
4.69349e-10
-7.87157e-11
5.60742e-10
-9.1393e-11
6.68327e-10
-1.07585e-10
7.91322e-10
-1.22994e-10
8.95093e-10
-1.03772e-10
8.47489e-10
4.76049e-11
2.09388e-09
-1.24639e-09
-4.91358e-12
8.22102e-12
1.72444e-11
-2.84785e-11
6.84146e-11
-6.70139e-11
1.44894e-10
-1.00586e-10
2.43453e-10
-1.29804e-10
3.61723e-10
-1.5592e-10
4.98092e-10
-1.79968e-10
6.51596e-10
-2.02846e-10
8.22003e-10
-2.25585e-10
1.01005e-09
-2.49597e-10
1.21768e-09
-2.76734e-10
1.44792e-09
-3.08961e-10
1.70349e-09
-3.46963e-10
1.98118e-09
-3.85271e-10
2.25188e-09
-3.93696e-10
2.39294e-09
-2.4483e-10
1.90222e-09
5.38328e-10
4.66067e-09
-6.64581e-10
-1.82384e-12
1.00449e-11
4.14611e-11
-7.17634e-11
1.34344e-10
-1.59897e-10
2.70985e-10
-2.37227e-10
4.46003e-10
-3.04822e-10
6.55134e-10
-3.65051e-10
8.95227e-10
-4.20061e-10
1.16402e-09
-4.71643e-10
1.46019e-09
-5.21748e-10
1.7834e-09
-5.72812e-10
2.1342e-09
-6.27531e-10
2.51261e-09
-6.87375e-10
2.91357e-09
-7.47922e-10
3.31372e-09
-7.85416e-10
3.63532e-09
-7.15301e-10
3.65234e-09
-2.61848e-10
2.73596e-09
1.45471e-09
7.28735e-09
1.09284e-10
5.93714e-12
4.10771e-12
7.67483e-11
-1.42575e-10
2.18444e-10
-3.01593e-10
4.23442e-10
-4.42225e-10
6.84139e-10
-5.65519e-10
9.94107e-10
-6.7502e-10
1.34817e-09
-7.74125e-10
1.74207e-09
-8.65545e-10
2.1723e-09
-9.5197e-10
2.63578e-09
-1.0363e-09
3.12891e-09
-1.12065e-09
3.6442e-09
-1.20267e-09
4.1619e-09
-1.26561e-09
4.62969e-09
-1.25321e-09
4.91822e-09
-1.00384e-09
4.73748e-09
-8.11091e-11
3.53435e-09
2.65784e-09
9.81985e-09
1.00186e-09
1.85849e-11
-1.44772e-11
1.23992e-10
-2.47981e-10
3.22152e-10
-4.99754e-10
6.03859e-10
-7.23931e-10
9.59192e-10
-9.20853e-10
1.37925e-09
-1.09508e-09
1.85626e-09
-1.25113e-09
2.38309e-09
-1.39237e-09
2.95273e-09
-1.52161e-09
3.5574e-09
-1.64097e-09
4.18635e-09
-1.74961e-09
4.82053e-09
-1.83685e-09
5.42074e-09
-1.86583e-09
5.9041e-09
-1.73657e-09
6.10299e-09
-1.20273e-09
5.71772e-09
3.04155e-10
4.35155e-09
4.02401e-09
1.21413e-08
2.03011e-09
3.61545e-11
-5.06317e-11
1.8365e-10
-3.95477e-10
4.46188e-10
-7.62292e-10
8.1275e-10
-1.09049e-09
1.27094e-09
-1.37905e-09
1.80904e-09
-1.63317e-09
2.41602e-09
-1.85812e-09
3.0809e-09
-2.05725e-09
3.79171e-09
-2.23243e-09
4.53392e-09
-2.38318e-09
5.28695e-09
-2.50264e-09
6.01724e-09
-2.56713e-09
6.66487e-09
-2.51346e-09
7.12154e-09
-2.19324e-09
7.20306e-09
-1.28424e-09
6.64483e-09
8.62381e-10
5.22137e-09
5.44747e-09
1.41885e-08
3.17413e-09
5.84441e-11
-1.09076e-10
2.55587e-10
-5.92619e-10
5.90253e-10
-1.09696e-09
1.04913e-09
-1.54937e-09
1.61709e-09
-1.94701e-09
2.2792e-09
-2.29528e-09
3.02054e-09
-2.59945e-09
3.82522e-09
-2.86194e-09
4.67493e-09
-3.08214e-09
5.54651e-09
-3.25476e-09
6.40769e-09
-3.36382e-09
7.20934e-09
-3.36878e-09
7.87306e-09
-3.17719e-09
8.27524e-09
-2.59541e-09
8.23788e-09
-1.24688e-09
7.56011e-09
1.54015e-09
6.17012e-09
6.83746e-09
1.59246e-08
4.43402e-09
8.49904e-11
-1.94066e-10
3.38865e-10
-8.46494e-10
7.52655e-10
-1.51075e-09
1.30995e-09
-2.10666e-09
1.99256e-09
-2.62962e-09
2.78193e-09
-3.08465e-09
3.65862e-09
-3.47614e-09
4.60093e-09
-3.80425e-09
5.58301e-09
-4.06421e-09
6.57186e-09
-4.24361e-09
7.52275e-09
-4.31471e-09
8.37212e-09
-4.21815e-09
9.02838e-09
-3.83345e-09
9.36495e-09
-2.93198e-09
9.22911e-09
-1.11104e-09
8.4963e-09
2.27296e-09
7.21676e-09
8.117e-09
1.73275e-08
5.81388e-09
1.15005e-10
-3.09071e-10
4.31539e-10
-1.16303e-09
9.2989e-10
-2.0091e-09
1.58951e-09
-2.76628e-09
2.38872e-09
-3.42884e-09
3.30501e-09
-4.00094e-09
4.31392e-09
-4.48504e-09
5.38732e-09
-4.87766e-09
6.49111e-09
-5.168e-09
7.58209e-09
-5.33459e-09
8.60381e-09
-5.33642e-09
9.48135e-09
-5.09569e-09
1.01172e-08
-4.46928e-09
1.03938e-08
-3.20861e-09
1.01966e-08
-9.1382e-10
9.47677e-09
2.99277e-09
8.37205e-09
9.22172e-09
1.83822e-08
7.31735e-09
1.47304e-10
-4.56374e-10
5.30427e-10
-1.54615e-09
1.11619e-09
-2.59486e-09
1.87875e-09
-3.52884e-09
2.79254e-09
-4.34263e-09
3.83085e-09
-5.03925e-09
4.964e-09
-5.6182e-09
6.15725e-09
-6.0709e-09
7.36829e-09
-6.37904e-09
8.54444e-09
-6.51074e-09
9.61965e-09
-6.41163e-09
1.05123e-08
-5.98836e-09
1.11267e-08
-5.0837e-09
1.13642e-08
-3.44608e-09
1.1154e-08
-7.03604e-10
1.0514e-08
3.63281e-09
9.63785e-09
1.00978e-08
1.9076e-08
8.94405e-09
1.80421e-10
-6.36795e-10
6.30911e-10
-1.99664e-09
1.30305e-09
-3.26699e-09
2.16459e-09
-4.39039e-09
3.18569e-09
-5.36372e-09
4.33548e-09
-6.18904e-09
5.57928e-09
-6.862e-09
6.87618e-09
-7.36781e-09
8.17661e-09
-7.67946e-09
9.42024e-09
-7.75437e-09
1.05348e-08
-7.52623e-09
1.14375e-08
-6.89101e-09
1.20413e-08
-5.68751e-09
1.22725e-08
-3.67734e-09
1.21042e-08
-5.35229e-10
1.16069e-08
4.13011e-09
1.10049e-08
1.06998e-08
1.93956e-08
1.06853e-08
1.77695e-10
-8.1449e-10
6.07036e-10
-2.42598e-09
1.23662e-09
-3.89658e-09
2.03319e-09
-5.18695e-09
2.96801e-09
-6.29855e-09
4.01214e-09
-7.23317e-09
5.13303e-09
-7.9829e-09
6.29229e-09
-8.52707e-09
7.44388e-09
-8.83106e-09
8.53317e-09
-8.84365e-09
9.49755e-09
-8.49061e-09
1.02701e-08
-7.66352e-09
1.07882e-08
-6.20564e-09
1.10108e-08
-3.89992e-09
1.09448e-08
-4.6926e-10
1.06791e-08
4.39581e-09
1.04116e-08
1.09674e-08
1.93656e-08
1.04415e-08
2.27872e-10
-1.04236e-09
7.70146e-10
-2.96826e-09
1.55181e-09
-4.67824e-09
2.52887e-09
-6.16402e-09
3.66498e-09
-7.43466e-09
4.92431e-09
-8.4925e-09
6.26696e-09
-9.32554e-09
7.6461e-09
-9.90621e-09
9.00638e-09
-1.01913e-08
1.02838e-08
-1.01211e-08
1.14085e-08
-9.61525e-09
1.23108e-08
-8.56586e-09
1.29343e-08
-6.82918e-09
1.32555e-08
-4.22105e-09
1.33102e-08
-5.23958e-10
1.32218e-08
4.48413e-09
1.3216e-08
1.09732e-08
1.89832e-08
1.35984e-08
2.82719e-10
-1.32508e-09
9.4775e-10
-3.63329e-09
1.8908e-09
-5.62129e-09
3.05475e-09
-7.32797e-09
4.39509e-09
-8.775e-09
5.86933e-09
-9.96673e-09
7.43104e-09
-1.08873e-08
9.02649e-09
-1.15017e-08
1.05933e-08
-1.17581e-08
1.20616e-08
-1.15895e-08
1.33592e-08
-1.09128e-08
1.44206e-08
-9.62725e-09
1.52027e-08
-7.61128e-09
1.57055e-08
-4.72387e-09
1.5996e-08
-8.14444e-10
1.62275e-08
4.25267e-09
1.66419e-08
1.05588e-08
1.80841e-08
1.75409e-08
3.32196e-10
-1.65728e-09
1.10556e-09
-4.40665e-09
2.18624e-09
-6.70196e-09
3.50333e-09
-8.64506e-09
5.00563e-09
-1.02773e-08
6.64662e-09
-1.16077e-08
8.3772e-09
-1.26178e-08
1.01418e-08
-1.32662e-08
1.18774e-08
-1.34937e-08
1.35159e-08
-1.3228e-08
1.49914e-08
-1.23883e-08
1.62512e-08
-1.08871e-08
1.72724e-08
-8.63247e-09
1.80812e-08
-5.53261e-09
1.87712e-08
-1.50443e-09
1.95141e-08
3.50968e-09
2.05533e-08
9.51968e-09
1.64641e-08
2.21733e-08
3.53658e-10
-2.01093e-09
1.1688e-09
-5.2218e-09
2.29285e-09
-7.82601e-09
3.64654e-09
-9.99876e-09
5.17782e-09
-1.18086e-08
6.84344e-09
-1.32733e-08
8.60057e-09
-1.4375e-08
1.04025e-08
-1.50681e-08
1.21975e-08
-1.52887e-08
1.39323e-08
-1.49629e-08
1.55593e-08
-1.40153e-08
1.70482e-08
-1.23759e-08
1.84007e-08
-9.98498e-09
1.96662e-08
-6.79815e-09
2.09541e-08
-2.79228e-09
2.2437e-08
2.02678e-09
2.43406e-08
7.61605e-09
1.38875e-08
2.69172e-08
3.04643e-10
-2.31558e-09
9.98081e-10
-5.91524e-09
1.94123e-09
-8.76916e-09
3.06433e-09
-1.11219e-08
4.32824e-09
-1.30725e-08
5.70709e-09
-1.46522e-08
7.17997e-09
-1.58479e-08
8.72635e-09
-1.66145e-08
1.03245e-08
-1.68868e-08
1.19537e-08
-1.65921e-08
1.36002e-08
-1.56618e-08
1.52659e-08
-1.40417e-08
1.69797e-08
-1.16987e-08
1.88071e-08
-8.62555e-09
2.08576e-08
-4.84277e-09
2.32844e-08
-4.00079e-10
2.6275e-08
4.6255e-09
1.01305e-08
3.00321e-08
1.16841e-10
-2.43242e-09
3.72853e-10
-6.17125e-09
7.08489e-10
-9.1048e-09
1.09929e-09
-1.15127e-08
1.54261e-09
-1.35158e-08
2.05049e-09
-1.51601e-08
2.64479e-09
-1.64422e-08
3.35314e-09
-1.73228e-08
4.20631e-09
-1.774e-08
5.23779e-09
-1.76236e-08
6.48578e-09
-1.69098e-08
7.99716e-09
-1.55531e-08
9.8325e-09
-1.35341e-08
1.20706e-08
-1.08636e-08
1.48108e-08
-7.58295e-09
1.81712e-08
-3.76052e-09
2.2286e-08
5.10671e-10
5.12825e-09
2.72882e-08
-2.91054e-10
-2.14137e-09
-9.54345e-10
-5.50796e-09
-1.87209e-09
-8.18705e-09
-2.97656e-09
-1.04082e-08
-4.20796e-09
-1.22844e-08
-5.49789e-09
-1.38701e-08
-6.76518e-09
-1.51749e-08
-7.91668e-09
-1.61713e-08
-8.85011e-09
-1.68066e-08
-9.45751e-09
-1.70162e-08
-9.62846e-09
-1.67388e-08
-9.25274e-09
-1.59288e-08
-8.22236e-09
-1.45644e-08
-6.43328e-09
-1.26527e-08
-3.78717e-09
-1.0229e-08
-1.93508e-10
-7.35418e-09
4.42608e-09
-4.10892e-09
-5.84847e-10
1.01392e-08
-4.61918e-10
-1.67945e-09
-1.51366e-09
-4.45622e-09
-2.96728e-09
-6.73344e-09
-4.72652e-09
-8.64895e-09
-6.7224e-09
-1.02885e-08
-8.88754e-09
-1.1705e-08
-1.11464e-08
-1.2916e-08
-1.34121e-08
-1.39057e-08
-1.55863e-08
-1.46325e-08
-1.75616e-08
-1.50409e-08
-1.9226e-08
-1.50744e-08
-2.04675e-08
-1.46873e-08
-2.11794e-08
-1.38526e-08
-2.12648e-08
-1.25673e-08
-2.0641e-08
-1.08529e-08
-1.92418e-08
-8.75334e-09
-1.702e-08
-6.33075e-09
-3.65944e-09
-1.39454e-08
-4.96977e-10
-1.18247e-09
-1.63996e-09
-3.31324e-09
-3.2361e-09
-5.13729e-09
-5.18995e-09
-6.69511e-09
-7.43677e-09
-8.04172e-09
-9.91758e-09
-9.22416e-09
-1.25685e-08
-1.0265e-08
-1.53156e-08
-1.11586e-08
-1.80727e-08
-1.18753e-08
-2.07427e-08
-1.23709e-08
-2.322e-08
-1.25971e-08
-2.53957e-08
-1.25115e-08
-2.71632e-08
-1.20851e-08
-2.84236e-08
-1.13068e-08
-2.90913e-08
-1.01852e-08
-2.90973e-08
-8.7473e-09
-2.83924e-08
-7.03566e-09
-5.10467e-09
-2.69472e-08
-4.34847e-10
-7.47624e-10
-1.45868e-09
-2.2894e-09
-2.91601e-09
-3.67996e-09
-4.72876e-09
-4.88236e-09
-6.84371e-09
-5.92677e-09
-9.21467e-09
-6.8532e-09
-1.17937e-08
-7.68596e-09
-1.45257e-08
-8.42664e-09
-1.73447e-08
-9.05629e-09
-2.01735e-08
-9.54215e-09
-2.29246e-08
-9.84596e-09
-2.55044e-08
-9.93184e-09
-2.7817e-08
-9.77248e-09
-2.97706e-08
-9.35321e-09
-3.12821e-08
-8.67376e-09
-3.22814e-08
-7.74796e-09
-3.2715e-08
-6.60205e-09
-5.27285e-09
-3.25468e-08
-3.31151e-10
-4.16473e-10
-1.14413e-09
-1.47642e-09
-2.3355e-09
-2.48859e-09
-3.84773e-09
-3.37013e-09
-5.63897e-09
-4.13553e-09
-7.6744e-09
-4.81778e-09
-9.92029e-09
-5.44007e-09
-1.23388e-08
-6.00812e-09
-1.48841e-08
-6.51101e-09
-1.75002e-08
-6.92609e-09
-2.0121e-08
-7.22512e-09
-2.26727e-08
-7.38016e-09
-2.50768e-08
-7.36832e-09
-2.72551e-08
-7.175e-09
-2.91333e-08
-6.79549e-09
-3.06461e-08
-6.23516e-09
-3.17397e-08
-5.50848e-09
-4.6384e-09
-3.23741e-08
-2.2337e-10
-1.93103e-10
-8.13093e-10
-8.867e-10
-1.71389e-09
-1.5878e-09
-2.88521e-09
-2.19881e-09
-4.29411e-09
-2.72663e-09
-5.9144e-09
-3.19749e-09
-7.72308e-09
-3.63139e-09
-9.69586e-09
-4.03534e-09
-1.1803e-08
-4.40382e-09
-1.4007e-08
-4.72214e-09
-1.62613e-08
-4.97081e-09
-1.85117e-08
-5.12975e-09
-2.06985e-08
-5.18156e-09
-2.27595e-08
-5.11395e-09
-2.4634e-08
-4.92103e-09
-2.62655e-08
-4.6036e-09
-2.76053e-08
-4.16868e-09
-3.62928e-09
-2.86145e-08
-1.31612e-10
-6.14902e-11
-5.27194e-10
-4.91118e-10
-1.16695e-09
-9.48035e-10
-2.02199e-09
-1.34377e-09
-3.06602e-09
-1.6826e-09
-4.27926e-09
-1.98425e-09
-5.64637e-09
-2.26428e-09
-7.1526e-09
-2.52911e-09
-8.78007e-09
-2.77635e-09
-1.05051e-08
-2.99712e-09
-1.2297e-08
-3.17893e-09
-1.41183e-08
-3.30846e-09
-1.59261e-08
-3.37372e-09
-1.76744e-08
-3.36561e-09
-1.93166e-08
-3.27891e-09
-2.08076e-08
-3.11255e-09
-2.2107e-08
-2.86935e-09
-2.55583e-09
-2.31804e-08
-6.35719e-11
2.08176e-12
-3.09169e-10
-2.45521e-10
-7.37974e-10
-5.1923e-10
-1.32843e-09
-7.53312e-10
-2.05963e-09
-9.514e-10
-2.9168e-09
-1.12708e-09
-3.88997e-09
-1.2911e-09
-4.97079e-09
-1.44829e-09
-6.14932e-09
-1.59783e-09
-7.41164e-09
-1.73479e-09
-8.73867e-09
-1.8519e-09
-1.0106e-08
-1.94112e-09
-1.14847e-08
-1.99504e-09
-1.28426e-08
-2.00774e-09
-1.4146e-08
-1.97544e-09
-1.53619e-08
-1.89672e-09
-1.64588e-08
-1.77241e-09
-1.6052e-09
-1.74094e-08
-1.95932e-11
2.16749e-11
-1.59172e-10
-1.05942e-10
-4.28637e-10
-2.49765e-10
-8.11338e-10
-3.70612e-10
-1.29126e-09
-4.71481e-10
-1.85782e-09
-5.60518e-10
-2.50487e-09
-6.44055e-10
-3.2281e-09
-7.25055e-10
-4.02256e-09
-8.03374e-10
-4.88075e-09
-8.76602e-10
-5.79163e-09
-9.41013e-10
-6.74034e-09
-9.92414e-10
-7.70855e-09
-1.02683e-09
-8.6753e-09
-1.04098e-09
-9.61813e-09
-1.03262e-09
-1.05142e-08
-1.00065e-09
-1.13415e-08
-9.45149e-10
-8.66916e-10
-1.20797e-08
3.71191e-12
1.7963e-11
-6.66988e-11
-3.55318e-11
-2.21338e-10
-9.51256e-11
-4.47739e-10
-1.44211e-10
-7.34671e-10
-1.84549e-10
-1.07522e-09
-2.19974e-10
-1.4659e-09
-2.53374e-10
-1.90482e-09
-2.86126e-10
-2.38993e-09
-3.18266e-10
-2.91768e-09
-3.48859e-10
-3.48229e-09
-3.76398e-10
-4.07555e-09
-3.99159e-10
-4.6869e-09
-4.15475e-10
-5.30394e-09
-4.23935e-10
-5.91305e-09
-4.23514e-10
-6.50006e-09
-4.13635e-10
-7.05103e-09
-3.94186e-10
-3.65264e-10
-7.55268e-09
1.11609e-11
6.80207e-12
-1.79193e-11
-6.45154e-12
-9.2616e-11
-2.04289e-11
-2.05121e-10
-3.17052e-11
-3.48887e-10
-4.07836e-11
-5.2015e-10
-4.87104e-11
-7.17294e-10
-5.62297e-11
-9.39722e-10
-6.36993e-11
-1.18684e-09
-7.11476e-11
-1.45733e-09
-7.83685e-11
-1.74871e-09
-8.50168e-11
-2.05718e-09
-9.06897e-11
-2.37766e-09
-9.49911e-11
-2.70402e-09
-9.75782e-11
-3.02935e-09
-9.81886e-11
-3.34633e-09
-9.66564e-11
-3.64761e-09
-9.29027e-11
-8.69077e-11
-3.92597e-09
6.80207e-12
3.5053e-13
-2.00784e-11
-5.17836e-11
-9.25672e-11
-1.41278e-10
-1.97507e-10
-2.61207e-10
-3.32354e-10
-4.10723e-10
-4.9574e-10
-5.86429e-10
-6.8142e-10
-7.78999e-10
-8.77187e-10
-9.73844e-10
-1.06675e-09
-1.15365e-09
1.09655e-10
-1.09655e-10
3.9498e-10
-2.85325e-10
7.93561e-10
-3.9858e-10
1.24197e-09
-4.48411e-10
1.68786e-09
-4.45888e-10
2.09046e-09
-4.026e-10
2.41956e-09
-3.291e-10
2.65399e-09
-2.34434e-10
2.77992e-09
-1.25928e-10
2.78892e-09
-8.99447e-12
2.67674e-09
1.12179e-10
2.44139e-09
2.35348e-10
2.08226e-09
3.59129e-10
1.59909e-09
4.83169e-10
9.91277e-10
6.07816e-10
2.57444e-10
7.33833e-10
-6.04764e-10
8.62208e-10
-1.59866e-09
9.939e-10
-2.72826e-09
1.12959e-09
-3.99787e-09
1.26962e-09
-5.41171e-09
1.41384e-09
-6.97332e-09
1.56161e-09
-8.68502e-09
1.7117e-09
-1.05474e-08
1.86234e-09
-1.25586e-08
2.01125e-09
-1.47143e-08
2.15566e-09
-1.70067e-08
2.29241e-09
-1.94247e-08
2.418e-09
-2.19534e-08
2.52868e-09
-2.45739e-08
2.62057e-09
-2.72637e-08
2.68975e-09
-2.99961e-08
2.73238e-09
-3.27409e-08
2.74484e-09
-3.54648e-08
2.72386e-09
-3.81314e-08
2.66666e-09
-4.07025e-08
2.57107e-09
-4.31381e-08
2.43563e-09
-4.53978e-08
2.25968e-09
-4.74413e-08
2.04348e-09
-4.92295e-08
1.78816e-09
-5.07252e-08
1.49577e-09
-5.18945e-08
1.16923e-09
-5.27067e-08
8.12206e-10
-5.31356e-08
4.28947e-10
-5.31664e-08
3.08338e-11
-5.27706e-08
-3.95868e-10
-5.19466e-08
-8.23973e-10
-5.06901e-08
-1.25651e-09
-4.90031e-08
-1.68703e-09
-4.68932e-08
-2.10985e-09
-4.43734e-08
-2.51984e-09
-4.1461e-08
-2.91237e-09
-3.81776e-08
-3.28343e-09
-3.4548e-08
-3.62957e-09
-3.06001e-08
-3.94793e-09
-2.6364e-08
-4.2361e-09
-2.18719e-08
-4.49202e-09
-1.71581e-08
-4.71383e-09
-1.22585e-08
-4.89963e-09
-7.21122e-09
-5.04727e-09
-2.05736e-09
-5.15385e-09
3.15983e-09
-5.21719e-09
8.39424e-09
-5.23441e-09
1.3595e-08
-5.20072e-09
1.87072e-08
-5.11224e-09
2.36727e-08
-4.96547e-09
2.84296e-08
-4.75693e-09
3.29134e-08
-4.48375e-09
3.70576e-08
-4.1442e-09
4.07957e-08
-3.73817e-09
4.40633e-08
-3.26756e-09
4.67999e-08
-2.73666e-09
4.89524e-08
-2.15244e-09
5.04771e-08
-1.52469e-09
5.13434e-08
-8.66335e-10
5.15336e-08
-1.90214e-10
5.10501e-08
4.8355e-10
4.99159e-08
1.13414e-09
4.81686e-08
1.74732e-09
4.58655e-08
2.30315e-09
4.30808e-08
2.78465e-09
3.9903e-08
3.17778e-09
3.64308e-08
3.47218e-09
3.27688e-08
3.66207e-09
2.9022e-08
3.74682e-09
2.52909e-08
3.73105e-09
2.16667e-08
3.62423e-09
1.82268e-08
3.43988e-09
1.50325e-08
3.19434e-09
1.21271e-08
2.90535e-09
9.53663e-09
2.59048e-09
7.27085e-09
2.26578e-09
5.32614e-09
1.94471e-09
3.6885e-09
1.63764e-09
2.33662e-09
1.35188e-09
1.24432e-09
1.0923e-09
3.82139e-10
8.62178e-10
-2.81825e-10
6.63964e-10
-7.81409e-10
4.99584e-10
-1.15157e-09
3.70162e-10
-1.42711e-09
2.75542e-10
-1.64088e-09
2.13765e-10
-1.82172e-09
1.80838e-10
-1.99281e-09
1.71099e-10
-2.17076e-09
1.77948e-10
-2.36549e-09
1.94724e-10
-2.58096e-09
2.15478e-10
-2.81642e-09
2.35456e-10
-3.06769e-09
2.51271e-10
-3.32852e-09
2.6083e-10
-3.59165e-09
2.63125e-10
-3.84962e-09
2.57978e-10
-4.09543e-09
2.45802e-10
-4.32284e-09
2.2741e-10
-4.5267e-09
2.03866e-10
-4.70307e-09
1.76367e-10
-4.84923e-09
1.46162e-10
-4.96371e-09
1.14476e-10
-5.04617e-09
8.24584e-11
-5.0973e-09
5.1139e-11
-5.11873e-09
2.14246e-11
-5.11268e-09
-6.05336e-12
-5.08194e-09
-3.07386e-11
-5.02973e-09
-5.22088e-11
-4.95936e-09
-7.03704e-11
-4.8742e-09
-8.5161e-11
-4.77753e-09
-9.66676e-11
-4.67245e-09
-1.05075e-10
-4.56181e-09
-1.10641e-10
-4.44814e-09
-1.1367e-10
-4.33365e-09
-1.14492e-10
-4.22021e-09
-1.13447e-10
-4.10934e-09
-1.10865e-10
-4.00228e-09
-1.07062e-10
-3.89996e-09
-1.02323e-10
-3.80305e-09
-9.69067e-11
-3.71201e-09
-9.10374e-11
-3.6271e-09
-8.49067e-11
-3.54843e-09
-7.86743e-11
-3.47596e-09
-7.24703e-11
-3.40956e-09
-6.63982e-11
-3.34902e-09
-6.05374e-11
-3.29408e-09
-5.49472e-11
-3.24441e-09
-4.96695e-11
-3.19968e-09
-4.47319e-11
-3.15953e-09
-4.01501e-11
-3.12359e-09
-3.59306e-11
-3.09152e-09
-3.20723e-11
-3.06295e-09
-2.85684e-11
-3.03755e-09
-2.54074e-11
-3.01497e-09
-2.25746e-11
-2.99492e-09
-2.00527e-11
-2.9771e-09
-1.78228e-11
-2.96123e-09
-1.58646e-11
-2.94707e-09
-1.41572e-11
-2.9344e-09
-1.26792e-11
-2.92299e-09
-1.14085e-11
-2.91266e-09
-1.03224e-11
-2.90327e-09
-9.39674e-12
-2.89466e-09
-8.60471e-12
-2.88675e-09
-7.91477e-12
-2.87946e-09
-7.28928e-12
-2.87278e-09
-6.68216e-12
-2.86674e-09
-6.03794e-12
-2.86144e-09
-5.29515e-12
-2.85705e-09
-4.39481e-12
-2.85375e-09
-3.2982e-12
-2.85173e-09
-2.01949e-12
-2.85116e-09
-5.66669e-13
-2.85189e-09
7.21725e-13
-2.85339e-09
1.50436e-12
-2.8547e-09
1.30858e-12
-2.85408e-09
-6.16145e-13
-2.84868e-09
-5.40598e-12
-2.83477e-09
-1.39031e-11
-2.80695e-09
-2.78208e-11
-2.7569e-09
-5.0053e-11
-2.67079e-09
-8.61122e-11
-2.52819e-09
-1.42599e-10
-3.20942e-10
-2.20725e-09
2.21709e-10
-3.31364e-10
7.12604e-10
-7.7622e-10
1.33842e-09
-1.0244e-09
1.99031e-09
-1.1003e-09
2.57756e-09
-1.03314e-09
3.02695e-09
-8.5199e-10
3.28115e-09
-5.83299e-10
3.29664e-09
-2.49918e-10
3.0413e-09
1.29411e-10
2.49227e-09
5.40036e-10
1.63331e-09
9.71141e-10
4.53272e-10
1.41538e-09
-1.05593e-09
1.86833e-09
-2.90064e-09
2.32788e-09
-5.08636e-09
2.79354e-09
-7.61836e-09
3.26583e-09
-1.05017e-08
3.74558e-09
-1.37412e-08
4.23333e-09
-1.73403e-08
4.72877e-09
-2.13011e-08
5.23038e-09
-2.56224e-08
5.7351e-09
-3.02989e-08
6.23819e-09
-3.53205e-08
6.73326e-09
-4.06705e-08
7.21231e-09
-4.63252e-08
7.66595e-09
-5.22531e-08
8.08361e-09
-5.84147e-08
8.45394e-09
-6.47617e-08
8.76509e-09
-7.12382e-08
9.00512e-09
-7.778e-08
9.16243e-09
-8.43164e-08
9.22617e-09
-9.07707e-08
9.18661e-09
-9.70614e-08
9.03559e-09
-1.03104e-07
8.7668e-09
-1.08814e-07
8.3761e-09
-1.14105e-07
7.86176e-09
-1.18893e-07
7.22454e-09
-1.23102e-07
6.46777e-09
-1.26655e-07
5.59735e-09
-1.29489e-07
4.62154e-09
-1.31544e-07
3.55079e-09
-1.32772e-07
2.39741e-09
-1.33135e-07
1.17524e-09
-1.32607e-07
-9.894e-11
-1.31164e-07
-1.4127e-09
-1.28813e-07
-2.74663e-09
-1.25553e-07
-4.08372e-09
-1.21401e-07
-5.40871e-09
-1.16381e-07
-6.707e-09
-1.10526e-07
-7.96507e-09
-1.03875e-07
-9.17092e-09
-9.64728e-08
-1.03141e-08
-8.83703e-08
-1.1386e-08
-7.96206e-08
-1.23793e-08
-7.02802e-08
-1.32883e-08
-6.04078e-08
-1.41085e-08
-5.0064e-08
-1.48359e-08
-3.9311e-08
-1.54668e-08
-2.82132e-08
-1.59975e-08
-1.68373e-08
-1.64232e-08
-5.25319e-09
-1.6738e-08
6.46347e-09
-1.69338e-08
1.82298e-08
-1.70008e-08
2.99575e-08
-1.69284e-08
4.15512e-08
-1.6706e-08
5.29077e-08
-1.63219e-08
6.39148e-08
-1.57641e-08
7.44528e-08
-1.50217e-08
8.43946e-08
-1.4086e-08
9.36081e-08
-1.29517e-08
1.01958e-07
-1.16179e-08
1.09311e-07
-1.00895e-08
1.15537e-07
-8.3782e-09
1.20515e-07
-6.50309e-09
1.24141e-07
-4.49154e-09
1.2633e-07
-2.37947e-09
1.27015e-07
-2.01125e-10
1.26184e-07
1.96422e-09
1.23846e-07
4.08541e-09
1.20058e-07
6.09202e-09
1.14917e-07
7.92498e-09
1.08568e-07
9.52732e-09
1.01191e-07
1.08488e-08
9.30027e-08
1.18503e-08
8.42423e-08
1.25073e-08
7.51611e-08
1.28122e-08
6.60092e-08
1.27762e-08
5.70212e-08
1.24279e-08
4.8404e-08
1.18115e-08
4.03275e-08
1.09819e-08
3.29185e-08
9.9995e-09
2.62593e-08
8.92494e-09
2.03904e-08
7.81363e-09
1.53155e-08
6.71256e-09
1.10085e-08
5.65884e-09
7.42048e-09
4.68032e-09
4.48517e-09
3.79749e-09
2.12372e-09
3.02542e-09
2.48469e-10
2.37484e-09
-1.23322e-09
1.85185e-09
-2.41417e-09
1.45649e-09
-3.38196e-09
1.18156e-09
-4.2139e-09
1.01278e-09
-4.97289e-09
9.30092e-10
-5.7052e-09
9.10255e-10
-6.44031e-09
9.29833e-10
-7.19259e-09
9.67764e-10
-7.96415e-09
1.00702e-09
-8.74812e-09
1.03523e-09
-9.53184e-09
1.04455e-09
-1.02997e-08
1.03097e-09
-1.10352e-08
9.93493e-10
-1.17227e-08
9.33325e-10
-1.23485e-08
8.5318e-10
-1.29013e-08
7.56718e-10
-1.33731e-08
6.48105e-10
-1.37586e-08
5.31676e-10
-1.40558e-08
4.1167e-10
-1.42654e-08
2.92022e-10
-1.43904e-08
1.76214e-10
-1.44362e-08
6.71812e-11
-1.44094e-08
-3.2799e-11
-1.43181e-08
-1.22059e-10
-1.41708e-08
-1.9949e-10
-1.39766e-08
-2.64649e-10
-1.37442e-08
-3.1753e-10
-1.34823e-08
-3.5854e-10
-1.3199e-08
-3.88411e-10
-1.29015e-08
-4.08107e-10
-1.25964e-08
-4.18741e-10
-1.22894e-08
-4.21508e-10
-1.19853e-08
-4.17615e-10
-1.16879e-08
-4.08242e-10
-1.14005e-08
-3.94499e-10
-1.11254e-08
-3.77405e-10
-1.08644e-08
-3.57868e-10
-1.06188e-08
-3.36685e-10
-1.03891e-08
-3.14535e-10
-1.01758e-08
-2.91986e-10
-9.97879e-09
-2.69503e-10
-9.79773e-09
-2.47458e-10
-9.63212e-09
-2.26138e-10
-9.48131e-09
-2.05761e-10
-9.3445e-09
-1.8648e-10
-9.22083e-09
-1.68402e-10
-9.10939e-09
-1.51588e-10
-9.00926e-09
-1.36067e-10
-8.91949e-09
-1.21841e-10
-8.83917e-09
-1.08889e-10
-8.7674e-09
-9.71749e-11
-8.70332e-09
-8.66493e-11
-8.64612e-09
-7.72535e-11
-8.59502e-09
-6.89216e-11
-8.54931e-09
-6.15838e-11
-8.5083e-09
-5.5166e-11
-8.47138e-09
-4.95922e-11
-8.43801e-09
-4.47838e-11
-8.40767e-09
-4.06594e-11
-8.37994e-09
-3.71322e-11
-8.35443e-09
-3.41062e-11
-8.33088e-09
-3.14701e-11
-8.30908e-09
-2.90909e-11
-8.28895e-09
-2.68088e-11
-8.27055e-09
-2.44364e-11
-8.25408e-09
-2.17707e-11
-8.23984e-09
-1.86276e-11
-8.22824e-09
-1.49038e-11
-8.21959e-09
-1.06723e-11
-8.21387e-09
-6.28623e-12
-8.21053e-09
-2.61494e-12
-8.20801e-09
-1.01656e-12
-8.20317e-09
-3.53151e-12
-8.19094e-09
-1.28393e-11
-8.16399e-09
-3.23589e-11
-8.11186e-09
-6.60374e-11
-8.02055e-09
-1.19125e-10
-7.8707e-09
-1.9991e-10
-7.63485e-09
-3.21954e-10
-7.26553e-09
-5.11923e-10
-8.89751e-10
-6.69672e-09
1.99293e-10
-5.30657e-10
5.97186e-10
-1.17411e-09
1.03889e-09
-1.4661e-09
1.4036e-09
-1.465e-09
1.59403e-09
-1.22358e-09
1.53173e-09
-7.89689e-10
1.15378e-09
-2.05346e-10
4.10124e-10
4.93737e-10
-7.38723e-10
1.27826e-09
-2.3237e-09
2.12502e-09
-4.36896e-09
3.0164e-09
-6.89332e-09
3.93974e-09
-9.9115e-09
4.88651e-09
-1.3435e-08
5.85134e-09
-1.74724e-08
6.83094e-09
-2.20296e-08
7.82309e-09
-2.71095e-08
8.82546e-09
-3.27109e-08
9.83475e-09
-3.88279e-08
1.08458e-08
-4.54483e-08
1.18508e-08
-5.25527e-08
1.28395e-08
-6.0113e-08
1.37984e-08
-6.80913e-08
1.47115e-08
-7.64393e-08
1.55604e-08
-8.50981e-08
1.63247e-08
-9.39978e-08
1.69833e-08
-1.03058e-07
1.75144e-08
-1.1219e-07
1.78969e-08
-1.21296e-07
1.81108e-08
-1.30272e-07
1.81383e-08
-1.3901e-07
1.79642e-08
-1.474e-07
1.75767e-08
-1.55332e-07
1.69679e-08
-1.62699e-07
1.61339e-08
-1.69398e-07
1.50754e-08
-1.75334e-07
1.37972e-08
-1.80418e-07
1.23087e-08
-1.84573e-07
1.06231e-08
-1.87733e-07
8.75734e-09
-1.89844e-07
6.73177e-09
-1.90862e-07
4.56927e-09
-1.9076e-07
2.29486e-09
-1.8952e-07
-6.44805e-11
-1.87138e-07
-2.48053e-09
-1.83626e-07
-4.92537e-09
-1.79001e-07
-7.37152e-09
-1.73291e-07
-9.79306e-09
-1.66534e-07
-1.21657e-08
-1.58774e-07
-1.44673e-08
-1.50061e-07
-1.66781e-08
-1.40451e-07
-1.87809e-08
-1.30004e-07
-2.07615e-08
-1.18781e-07
-2.26084e-08
-1.06848e-07
-2.43125e-08
-9.42692e-08
-2.58671e-08
-8.11104e-08
-2.72672e-08
-6.74378e-08
-2.85085e-08
-5.33174e-08
-2.95872e-08
-3.88164e-08
-3.04984e-08
-2.40034e-08
-3.12361e-08
-8.94962e-09
-3.17917e-08
6.26965e-09
-3.21531e-08
2.15721e-08
-3.23032e-08
3.68676e-08
-3.22238e-08
5.20581e-08
-3.18965e-08
6.70357e-08
-3.12995e-08
8.16818e-08
-3.04102e-08
9.58668e-08
-2.92067e-08
1.09451e-07
-2.76697e-08
1.22283e-07
-2.57842e-08
1.34206e-07
-2.35412e-08
1.45057e-07
-2.094e-08
1.54668e-07
-1.79898e-08
1.62877e-07
-1.47112e-08
1.69523e-07
-1.11376e-08
1.74459e-07
-7.31627e-09
1.77567e-07
-3.30869e-09
1.78729e-07
8.02076e-10
1.77889e-07
4.92601e-09
1.75026e-07
8.9549e-09
1.70175e-07
1.27754e-08
1.63431e-07
1.62717e-08
1.54949e-07
1.93311e-08
1.44947e-07
2.18522e-08
1.33701e-07
2.37533e-08
1.21532e-07
2.49807e-08
1.08793e-07
2.55151e-08
9.58458e-08
2.53753e-08
8.30397e-08
2.46177e-08
7.0691e-08
2.33306e-08
5.90647e-08
2.16257e-08
4.83633e-08
1.96264e-08
3.87215e-08
1.74554e-08
3.0209e-08
1.5225e-08
2.2837e-08
1.30308e-08
1.6568e-08
1.09494e-08
1.13257e-08
9.03973e-09
7.00502e-09
7.34611e-09
3.4803e-09
5.89956e-09
6.14316e-10
4.71783e-09
-1.73306e-09
3.80386e-09
-3.69559e-09
3.14409e-09
-5.39203e-09
2.70922e-09
-6.91991e-09
2.45798e-09
-8.35222e-09
2.34256e-09
-9.73714e-09
2.31475e-09
-1.11005e-08
2.33112e-09
-1.24499e-08
2.35638e-09
-1.37794e-08
2.36473e-09
-1.50744e-08
2.33959e-09
-1.63157e-08
2.27229e-09
-1.74827e-08
2.16045e-09
-1.85556e-08
2.00629e-09
-1.95176e-08
1.81519e-09
-2.03555e-08
1.59454e-09
-2.10601e-08
1.35271e-09
-2.16268e-08
1.0984e-09
-2.20552e-08
8.40063e-10
-2.23486e-08
5.85432e-10
-2.25137e-08
3.41278e-10
-2.25597e-08
1.13189e-10
-2.24979e-08
-9.45237e-11
-2.23412e-08
-2.78835e-10
-2.21027e-08
-4.37931e-10
-2.17962e-08
-5.71129e-10
-2.14351e-08
-6.78689e-10
-2.1032e-08
-7.61656e-10
-2.05987e-08
-8.21678e-10
-2.0146e-08
-8.60834e-10
-1.96832e-08
-8.81471e-10
-1.92187e-08
-8.86065e-10
-1.87592e-08
-8.77109e-10
-1.83104e-08
-8.57012e-10
-1.78769e-08
-8.28039e-10
-1.7462e-08
-7.92256e-10
-1.70684e-08
-7.51512e-10
-1.66977e-08
-7.07418e-10
-1.63508e-08
-6.61353e-10
-1.60284e-08
-6.14471e-10
-1.57301e-08
-5.67717e-10
-1.54557e-08
-5.21848e-10
-1.52044e-08
-4.77455e-10
-1.49752e-08
-4.34982e-10
-1.47669e-08
-3.94753e-10
-1.45784e-08
-3.56985e-10
-1.44081e-08
-3.21813e-10
-1.42549e-08
-2.893e-10
-1.41173e-08
-2.59456e-10
-1.39939e-08
-2.32245e-10
-1.38835e-08
-2.07595e-10
-1.37847e-08
-1.85411e-10
-1.36964e-08
-1.65576e-10
-1.36174e-08
-1.47957e-10
-1.35466e-08
-1.32413e-10
-1.34829e-08
-1.18793e-10
-1.34256e-08
-1.06944e-10
-1.33737e-08
-9.67034e-11
-1.33264e-08
-8.7905e-11
-1.32832e-08
-8.03706e-11
-1.32434e-08
-7.39038e-11
-1.32066e-08
-6.82792e-11
-1.31724e-08
-6.32307e-11
-1.31408e-08
-5.84423e-11
-1.31117e-08
-5.35509e-11
-1.30853e-08
-4.81755e-11
-1.30619e-08
-4.19882e-11
-1.3042e-08
-3.48455e-11
-1.30257e-08
-2.69831e-11
-1.30127e-08
-1.92668e-11
-1.30018e-08
-1.34893e-11
-1.29903e-08
-1.25668e-11
-1.29731e-08
-2.07335e-11
-1.29424e-08
-4.35108e-11
-1.28871e-08
-8.76655e-11
-1.27919e-08
-1.61165e-10
-1.26373e-08
-2.73786e-10
-1.2398e-08
-4.39166e-10
-1.20415e-08
-6.78515e-10
-1.15242e-08
-1.02919e-09
-1.56479e-09
-1.08492e-08
8.53541e-11
-6.16011e-10
1.74523e-10
-1.26328e-09
1.34113e-10
-1.42569e-09
-1.4013e-10
-1.19076e-09
-7.30764e-10
-6.32944e-10
-1.70454e-09
1.84083e-10
-3.11591e-09
1.20603e-09
-5.00995e-09
2.38777e-09
-7.42413e-09
3.69244e-09
-1.03898e-08
5.09066e-09
-1.39329e-08
6.5595e-09
-1.80746e-08
8.08144e-09
-2.28312e-08
9.64318e-09
-2.82143e-08
1.12344e-08
-3.42296e-08
1.28463e-08
-4.08769e-08
1.44704e-08
-4.81486e-08
1.60972e-08
-5.60287e-08
1.77149e-08
-6.44916e-08
1.93087e-08
-7.35008e-08
2.086e-08
-8.30079e-08
2.23466e-08
-9.29521e-08
2.37427e-08
-1.0326e-07
2.50197e-08
-1.13847e-07
2.6147e-08
-1.24615e-07
2.7093e-08
-1.35459e-07
2.78268e-08
-1.46263e-07
2.83187e-08
-1.56908e-07
2.8542e-08
-1.67271e-07
2.84739e-08
-1.77229e-07
2.8096e-08
-1.8666e-07
2.73956e-08
-1.95449e-07
2.63656e-08
-2.03487e-07
2.50052e-08
-2.10672e-07
2.33194e-08
-2.16916e-07
2.13193e-08
-2.2214e-07
1.90214e-08
-2.26279e-07
1.64475e-08
-2.29279e-07
1.36234e-08
-2.31101e-07
1.05792e-08
-2.31717e-07
7.34775e-09
-2.31112e-07
3.96436e-09
-2.29284e-07
4.66409e-10
-2.26241e-07
-3.10748e-09
-2.22002e-07
-6.71947e-09
-2.16594e-07
-1.03331e-08
-2.10052e-07
-1.39133e-08
-2.02419e-07
-1.74265e-08
-1.93743e-07
-2.08421e-08
-1.84077e-07
-2.41324e-08
-1.73482e-07
-2.72732e-08
-1.62019e-07
-3.02441e-08
-1.49752e-07
-3.30287e-08
-1.36746e-07
-3.56144e-08
-1.23066e-07
-3.79921e-08
-1.08778e-07
-4.01557e-08
-9.39435e-08
-4.21015e-08
-7.86255e-08
-4.38266e-08
-6.28842e-08
-4.53284e-08
-4.67796e-08
-4.66031e-08
-3.03715e-08
-4.76442e-08
-1.37217e-08
-4.84415e-08
3.10562e-09
-4.89804e-08
2.00421e-08
-4.92397e-08
3.70109e-08
-4.91926e-08
5.39251e-08
-4.88108e-08
7.06882e-08
-4.80625e-08
8.7192e-08
-4.6914e-08
1.03317e-07
-4.53314e-08
1.1893e-07
-4.32831e-08
1.33888e-07
-4.07423e-08
1.48037e-07
-3.76896e-08
1.61212e-07
-3.41149e-08
1.73242e-07
-3.00203e-08
1.83953e-07
-2.54218e-08
1.93166e-07
-2.03513e-08
2.00709e-07
-1.48586e-08
2.06413e-07
-9.01338e-09
2.10121e-07
-2.90574e-09
2.11697e-07
3.34991e-09
2.11036e-07
9.61665e-09
2.08076e-07
1.57346e-08
2.02815e-07
2.15329e-08
1.95313e-07
2.68328e-08
1.85708e-07
3.14576e-08
1.74216e-07
3.52453e-08
1.61134e-07
3.80631e-08
1.46827e-07
3.98222e-08
1.31712e-07
4.04894e-08
1.16236e-07
4.00945e-08
1.00837e-07
3.87295e-08
8.59222e-08
3.65403e-08
7.18378e-08
3.37108e-08
5.88502e-08
3.0443e-08
4.71382e-08
2.6937e-08
3.67939e-08
2.33751e-08
2.78306e-08
1.99127e-08
2.01953e-08
1.6675e-08
1.3783e-08
1.37584e-08
8.4508e-09
1.12317e-08