/*--------------------------------*- C++ -*----------------------------------*\
  =========                 |
  \\      /  F ield         | OpenFOAM: The Open Source CFD Toolbox
   \\    /   O peration     | Website:  https://openfoam.org
    \\  /    A nd           | Version:  8
     \\/     M anipulation  |
\*---------------------------------------------------------------------------*/
FoamFile
{
    version     2.0;
    format      ascii;
    class       volVectorField;
    location    "0.58";
    object      U;
}
// * * * * * * * * * * * * * * * * * * * * * * * * * * * * * * * * * * * * * //

dimensions      [0 1 -1 0 0 0 0];

internalField   nonuniform List<vector> 
12225
(
(-9.53543e-06 1.32125e-06 0)
(-8.37837e-06 -5.37792e-07 0)
(2.73905e-05 -1.66609e-06 0)
(9.05391e-05 -2.74586e-06 0)
(0.00017784 -3.73625e-06 0)
(0.000286139 -4.72319e-06 0)
(0.00041368 -5.73962e-06 0)
(0.000559398 -6.83299e-06 0)
(0.000723068 -8.06871e-06 0)
(0.000905588 -9.56294e-06 0)
(0.00110957 -1.15203e-05 0)
(0.00134014 -1.42945e-05 0)
(0.00160587 -1.85136e-05 0)
(0.00191896 -2.52061e-05 0)
(0.00229278 -3.47197e-05 0)
(0.00273572 -3.89809e-05 0)
(0.00317748 -6.73537e-05 0)
(0.000725779 0.00182697 0)
(-2.00043e-05 4.1264e-06 0)
(-4.90075e-06 -9.01476e-06 0)
(0.000104967 -2.3437e-05 0)
(0.000293151 -3.705e-05 0)
(0.000550717 -4.99912e-05 0)
(0.00086881 -6.27093e-05 0)
(0.00124188 -7.55924e-05 0)
(0.00166613 -8.90436e-05 0)
(0.0021397 -0.000103625 0)
(0.00266318 -0.000120248 0)
(0.00324051 -0.000140346 0)
(0.00387955 -0.000165969 0)
(0.0045912 -0.000199506 0)
(0.00538202 -0.000241669 0)
(0.00623071 -0.000280526 0)
(0.00700088 -0.000233839 0)
(0.00725758 0.000274902 0)
(0.00249409 0.00442458 0)
(-2.3928e-05 6.55575e-06 0)
(1.72939e-05 -2.95111e-05 0)
(0.000206686 -7.1197e-05 0)
(0.000522238 -0.000110927 0)
(0.000950073 -0.000148935 0)
(0.00147603 -0.000186189 0)
(0.00209039 -0.000223654 0)
(0.00278573 -0.000262289 0)
(0.00355713 -0.000303377 0)
(0.00440229 -0.000348862 0)
(0.00532198 -0.000401483 0)
(0.00631871 -0.000464202 0)
(0.00739095 -0.000537532 0)
(0.00851346 -0.000609954 0)
(0.00958595 -0.000622675 0)
(0.0102736 -0.00033776 0)
(0.00981986 0.00113476 0)
(0.00419939 0.00755741 0)
(-2.28272e-05 5.87141e-06 0)
(5.6192e-05 -6.62392e-05 0)
(0.000330671 -0.000150763 0)
(0.000775156 -0.000232011 0)
(0.00137155 -0.000310026 0)
(0.0021008 -0.000386305 0)
(0.00294855 -0.000462491 0)
(0.00390288 -0.000540125 0)
(0.004954 -0.000621143 0)
(0.00609387 -0.000708231 0)
(0.00731514 -0.000804478 0)
(0.00860696 -0.000911052 0)
(0.00994281 -0.00101954 0)
(0.0112487 -0.00108939 0)
(0.0123331 -0.000979982 0)
(0.0127112 -0.000247466 0)
(0.0115218 0.00245352 0)
(0.00588837 0.0108642 0)
(-1.8e-05 -1.23086e-06 0)
(0.000109365 -0.000123452 0)
(0.000474009 -0.000266645 0)
(0.00104779 -0.000405336 0)
(0.00180891 -0.000538848 0)
(0.00273375 -0.000669033 0)
(0.00380297 -0.000798076 0)
(0.00499907 -0.000927844 0)
(0.00630563 -0.0010604 0)
(0.00770586 -0.00119809 0)
(0.00917974 -0.00134212 0)
(0.0106964 -0.00148718 0)
(0.0121966 -0.0016065 0)
(0.0135534 -0.00161354 0)
(0.0145002 -0.00126355 0)
(0.014492 8.78315e-05 0)
(0.0127539 0.00405074 0)
(0.00755986 0.0139797 0)
(-1.05309e-05 -1.79722e-05 0)
(0.000173923 -0.00020593 0)
(0.000632596 -0.000423993 0)
(0.00133428 -0.00063646 0)
(0.00225365 -0.000841325 0)
(0.00336282 -0.00104044 0)
(0.00463709 -0.00123614 0)
(0.00605246 -0.00143 0)
(0.00758416 -0.00162317 0)
(0.00920406 -0.00181581 0)
(0.0108759 -0.00200391 0)
(0.012545 -0.00216984 0)
(0.0141174 -0.0022591 0)
(0.0154213 -0.00212727 0)
(0.0161489 -0.00142267 0)
(0.0157811 0.000651731 0)
(0.0137386 0.00577337 0)
(0.00920275 0.0167574 0)
(-1.35283e-06 -4.74242e-05 0)
(0.000246516 -0.000318701 0)
(0.00080111 -0.000628255 0)
(0.00162692 -0.000931042 0)
(0.00269493 -0.00122318 0)
(0.00397323 -0.00150603 0)
(0.00543147 -0.00178139 0)
(0.00703838 -0.00204958 0)
(0.00875955 -0.00230925 0)
(0.0105537 -0.00255587 0)
(0.0123665 -0.0027763 0)
(0.0141189 -0.0029348 0)
(0.0156869 -0.00294209 0)
(0.0168702 -0.00259237 0)
(0.0173581 -0.00144252 0)
(0.0167193 0.00139004 0)
(0.0146044 0.00750268 0)
(0.0108138 0.0191513 0)
(8.71358e-06 -9.24496e-05 0)
(0.000323358 -0.000466686 0)
(0.000972983 -0.000884626 0)
(0.00191608 -0.00129409 0)
(0.00311948 -0.00168899 0)
(0.00454738 -0.00206958 0)
(0.00616372 -0.00243619 0)
(0.00792959 -0.00278656 0)
(0.00980025 -0.00311486 0)
(0.0117207 -0.00340899 0)
(0.0136188 -0.00364271 0)
(0.0153941 -0.00375759 0)
(0.0169019 -0.00362672 0)
(0.0179335 -0.00298833 0)
(0.0182095 -0.00133595 0)
(0.0174177 0.00223082 0)
(0.0154205 0.00913934 0)
(0.0123903 0.0211347 0)
(1.89418e-05 -0.00015552 0)
(0.000400276 -0.00065429 0)
(0.00114045 -0.00119752 0)
(0.00219019 -0.00172933 0)
(0.00351149 -0.00224146 0)
(0.00506489 -0.00273237 0)
(0.00680879 -0.00319982 0)
(0.00869677 -0.00363733 0)
(0.010674 -0.00403241 0)
(0.0126726 -0.00436247 0)
(0.0146052 -0.00458493 0)
(0.0163559 -0.00461631 0)
(0.0177709 -0.00429389 0)
(0.0186529 -0.00331284 0)
(0.0187766 -0.00113701 0)
(0.0179542 0.00309505 0)
(0.0162157 0.0105987 0)
(0.0139241 0.0226863 0)
(2.86725e-05 -0.000238479 0)
(0.000472775 -0.000884876 0)
(0.00129461 -0.00156993 0)
(0.00243579 -0.00223857 0)
(0.00385278 -0.00288073 0)
(0.00550276 -0.00349252 0)
(0.00733919 -0.00406789 0)
(0.00930894 -0.00459444 0)
(0.0113485 -0.00505079 0)
(0.0133793 -0.00540141 0)
(0.015303 -0.00558538 0)
(0.0169963 -0.0054945 0)
(0.0183085 -0.00493649 0)
(0.0190687 -0.00358105 0)
(0.0191165 -0.000895213 0)
(0.0183754 0.00390298 0)
(0.0169909 0.0118093 0)
(0.0153987 0.0237884 0)
(3.72962e-05 -0.000342325 0)
(0.000536123 -0.00116002 0)
(0.00142566 -0.0020026 0)
(0.00263772 -0.00282073 0)
(0.00412296 -0.00360345 0)
(0.00583564 -0.00434408 0)
(0.00772539 -0.00503164 0)
(0.00973393 -0.0056462 0)
(0.0117913 -0.00615557 0)
(0.0138123 -0.00650962 0)
(0.0156931 -0.00662874 0)
(0.0173112 -0.00638299 0)
(0.0185294 -0.00555995 0)
(0.0192124 -0.00382279 0)
(0.0192647 -0.000669411 0)
(0.0186976 0.00457883 0)
(0.017725 0.0127118 0)
(0.0167863 0.0244249 0)
(4.38194e-05 -0.000456858 0)
(0.000581571 -0.00145223 0)
(0.00151522 -0.00245222 0)
(0.00276818 -0.00341676 0)
(0.00428581 -0.00433533 0)
(0.00602051 -0.00519872 0)
(0.00791985 -0.00599056 0)
(0.00992299 -0.00668284 0)
(0.0119572 -0.00723232 0)
(0.013935 -0.00757495 0)
(0.0157537 -0.00761514 0)
(0.0172983 -0.00720763 0)
(0.0184507 -0.00613137 0)
(0.0191111 -0.00405936 0)
(0.0192358 -0.000535986 0)
(0.018893 0.00501449 0)
(0.0183249 0.0132154 0)
(0.0179415 0.0245734 0)
(4.92142e-05 -0.000585557 0)
(0.000612781 -0.00177318 0)
(0.00157046 -0.00293805 0)
(0.00283909 -0.0040532 0)
(0.00435904 -0.00510984 0)
(0.00608186 -0.00609643 0)
(0.00795475 -0.00699088 0)
(0.00991659 -0.00775654 0)
(0.0118949 -0.00833881 0)
(0.0138041 -0.00866019 0)
(0.0155471 -0.00861132 0)
(0.0170213 -0.00803651 0)
(0.018131 -0.00671452 0)
(0.0188103 -0.00433911 0)
(0.0190574 -0.000510412 0)
(0.0189771 0.00524528 0)
(0.0188164 0.0134073 0)
(0.0189427 0.0243364 0)
(5.3493e-05 -0.000748494 0)
(0.000626013 -0.00217416 0)
(0.0015798 -0.00353494 0)
(0.00282771 -0.00482539 0)
(0.00430584 -0.00604053 0)
(0.00596645 -0.00716669 0)
(0.00775895 -0.00817524 0)
(0.00962538 -0.00901949 0)
(0.0114978 -0.00963214 0)
(0.0132981 -0.00992181 0)
(0.0149412 -0.00976708 0)
(0.0163427 -0.00900707 0)
(0.0174337 -0.00742997 0)
(0.0181821 -0.00476394 0)
(0.0186199 -0.000678691 0)
(0.0188719 0.00519069 0)
(0.0191704 0.0131881 0)
(0.0198289 0.0235516 0)
(5.48463e-05 -0.000946235 0)
(0.000605891 -0.00265628 0)
(0.00150737 -0.00424158 0)
(0.00267323 -0.00572786 0)
(0.00403867 -0.00711752 0)
(0.00555959 -0.00839567 0)
(0.00719174 -0.00952717 0)
(0.00888544 -0.0104549 0)
(0.0105836 -0.0110988 0)
(0.0122222 -0.0113548 0)
(0.0137349 -0.0110933 0)
(0.0150613 -0.0101551 0)
(0.0161607 -0.00834833 0)
(0.0170297 -0.00544702 0)
(0.0177217 -0.0011987 0)
(0.0183629 0.00465411 0)
(0.0191549 0.0123353 0)
(0.0203509 0.0219836 0)
(5.0732e-05 -0.00116975 0)
(0.000531323 -0.00319686 0)
(0.00130419 -0.00502324 0)
(0.00229288 -0.0067138 0)
(0.00343891 -0.00828315 0)
(0.00470675 -0.00971759 0)
(0.00606415 -0.0109771 0)
(0.0074764 -0.0119956 0)
(0.00890456 -0.0126824 0)
(0.0103064 -0.0129241 0)
(0.0116403 -0.0125881 0)
(0.012873 -0.0115242 0)
(0.0139903 -0.00956825 0)
(0.0150091 -0.00654627 0)
(0.0159901 -0.00228324 0)
(0.0170439 0.00338121 0)
(0.0183307 0.0105711 0)
(0.0200425 0.0193475 0)
(3.80833e-05 -0.00138983 0)
(0.000376797 -0.00372538 0)
(0.000911636 -0.00577843 0)
(0.00158781 -0.00765561 0)
(0.00236474 -0.00938858 0)
(0.00322243 -0.0109689 0)
(0.00414714 -0.0123557 0)
(0.00512604 -0.0134784 0)
(0.00614548 -0.0142401 0)
(0.00719123 -0.0145236 0)
(0.00825108 -0.0141984 0)
(0.00931971 -0.0131286 0)
(0.0104054 -0.0111801 0)
(0.011537 -0.0082279 0)
(0.0127704 -0.00416425 0)
(0.0141901 0.00109266 0)
(0.0159094 0.00758943 0)
(0.0180631 0.0153297 0)
(1.36829e-05 -0.00154101 0)
(0.000119063 -0.00408654 0)
(0.000278412 -0.00628811 0)
(0.000472829 -0.00828475 0)
(0.000693407 -0.0101263 0)
(0.00094296 -0.0118147 0)
(0.00123109 -0.0133149 0)
(0.00157138 -0.0145592 0)
(0.00197957 -0.0154518 0)
(0.00247276 -0.0158782 0)
(0.00306978 -0.0157146 0)
(0.00379279 -0.0148396 0)
(0.0046698 -0.013144 0)
(0.00573726 -0.0105397 0)
(0.00704207 -0.00696601 0)
(0.00864237 -0.00239395 0)
(0.0106063 0.00317173 0)
(0.0130192 0.00969186 0)
(-2.53372e-05 -0.0015042 0)
(-0.000240261 -0.00399988 0)
(-0.000584847 -0.00615774 0)
(-0.00103067 -0.00811758 0)
(-0.00154604 -0.00993907 0)
(-0.00210315 -0.0116374 0)
(-0.00266999 -0.0131914 0)
(-0.00320864 -0.0145464 0)
(-0.00367621 -0.0156189 0)
(-0.00402645 -0.0163051 0)
(-0.00421134 -0.0164931 0)
(-0.00418233 -0.0160745 0)
(-0.0038915 -0.014956 0)
(-0.00329241 -0.0130678 0)
(-0.00234097 -0.0103699 0)
(-0.000995462 -0.00685384 0)
(0.000782751 -0.00254244 0)
(0.00304137 0.00251421 0)
(-5.38488e-05 -0.00122921 0)
(-0.000521647 -0.00333801 0)
(-0.0012694 -0.00520304 0)
(-0.00223493 -0.0069195 0)
(-0.00336108 -0.00853655 0)
(-0.00460832 -0.0100762 0)
(-0.0059358 -0.0115322 0)
(-0.00729572 -0.0128685 0)
(-0.00863284 -0.0140211 0)
(-0.00988551 -0.0149051 0)
(-0.0109878 -0.015425 0)
(-0.011872 -0.0154855 0)
(-0.0124723 -0.0150025 0)
(-0.0127271 -0.0139114 0)
(-0.012583 -0.0121726 0)
(-0.0119954 -0.00977484 0)
(-0.0109279 -0.00673447 0)
(-0.00934229 -0.00309296 0)
(-6.38702e-05 -0.000911049 0)
(-0.000644531 -0.00257619 0)
(-0.00158405 -0.00410083 0)
(-0.00280809 -0.00552347 0)
(-0.00425235 -0.00687653 0)
(-0.00587633 -0.00818342 0)
(-0.00764017 -0.00944849 0)
(-0.00949764 -0.0106513 0)
(-0.0113942 -0.0117467 0)
(-0.013267 -0.0126695 0)
(-0.0150461 -0.0133427 0)
(-0.0166572 -0.0136864 0)
(-0.0180256 -0.0136273 0)
(-0.01908 -0.0131061 0)
(-0.0197567 -0.0120826 0)
(-0.0200028 -0.0105393 0)
(-0.019775 -0.00848125 0)
(-0.0190338 -0.00593577 0)
(-6.02024e-05 -0.000606596 0)
(-0.000649216 -0.00183815 0)
(-0.00162676 -0.0030185 0)
(-0.00292068 -0.00413377 0)
(-0.00446989 -0.00520047 0)
(-0.00623743 -0.0062408 0)
(-0.00818843 -0.00726562 0)
(-0.0102835 -0.00826668 0)
(-0.0124756 -0.00921504 0)
(-0.0147086 -0.0100641 0)
(-0.0169175 -0.0107556 0)
(-0.0190302 -0.0112265 0)
(-0.0209714 -0.0114165 0)
(-0.0226663 -0.0112741 0)
(-0.0240452 -0.0107613 0)
(-0.0250479 -0.00985638 0)
(-0.0256236 -0.00855516 0)
(-0.0257276 -0.00687161 0)
(-4.72185e-05 -0.00035969 0)
(-0.000571273 -0.00122188 0)
(-0.00147828 -0.00209328 0)
(-0.00270628 -0.00292378 0)
(-0.00420184 -0.00371892 0)
(-0.00593223 -0.00449837 0)
(-0.00786828 -0.00527588 0)
(-0.00997887 -0.00605099 0)
(-0.012227 -0.00680696 0)
(-0.0145672 -0.00751258 0)
(-0.0169442 -0.00812637 0)
(-0.0192943 -0.00860169 0)
(-0.0215479 -0.00889214 0)
(-0.0236333 -0.00895624 0)
(-0.0254808 -0.00876116 0)
(-0.027027 -0.00828511 0)
(-0.0282169 -0.00751852 0)
(-0.0290018 -0.00646564 0)
(-2.94103e-05 -0.000183241 0)
(-0.000448721 -0.000757263 0)
(-0.00122356 -0.00137089 0)
(-0.00230438 -0.00195745 0)
(-0.00364576 -0.00251711 0)
(-0.00521834 -0.0030665 0)
(-0.00699799 -0.00361936 0)
(-0.00896139 -0.00417924 0)
(-0.0110815 -0.00473753 0)
(-0.013324 -0.00527462 0)
(-0.0156455 -0.00576269 0)
(-0.0179933 -0.00616932 0)
(-0.0203079 -0.00646114 0)
(-0.0225251 -0.0066072 0)
(-0.0245804 -0.00658166 0)
(-0.0264125 -0.00636563 0)
(-0.0279662 -0.00594817 0)
(-0.0291927 -0.00532778 0)
(-1.05869e-05 -7.19642e-05 0)
(-0.000313177 -0.000434794 0)
(-0.000931809 -0.000844058 0)
(-0.00182766 -0.00123388 0)
(-0.00296185 -0.00160313 0)
(-0.00430754 -0.00196511 0)
(-0.0058449 -0.00233168 0)
(-0.00755718 -0.00270761 0)
(-0.00942598 -0.00308913 0)
(-0.0114272 -0.00346468 0)
(-0.0135287 -0.00381677 0)
(-0.0156898 -0.0041243 0)
(-0.0178622 -0.00436495 0)
(-0.0199923 -0.00451735 0)
(-0.0220241 -0.00456294 0)
(-0.0239024 -0.00448724 0)
(-0.0255761 -0.00428053 0)
(-0.0269999 -0.00393882 0)
(6.28742e-06 -1.22065e-05 0)
(-0.000187384 -0.000227542 0)
(-0.000651086 -0.000481663 0)
(-0.00135341 -0.000721271 0)
(-0.00226054 -0.000945914 0)
(-0.00334814 -0.00116545 0)
(-0.00460016 -0.00138882 0)
(-0.00600521 -0.00162034 0)
(-0.00755174 -0.00185874 0)
(-0.00922412 -0.00209775 0)
(-0.0110001 -0.00232716 0)
(-0.0128499 -0.00253431 0)
(-0.0147366 -0.00270546 0)
(-0.0166182 -0.00282715 0)
(-0.0184489 -0.0028873 0)
(-0.0201825 -0.00287604 0)
(-0.0217745 -0.00278614 0)
(-0.0231862 -0.0026133 0)
(1.89068e-05 1.17419e-05 0)
(-8.5827e-05 -0.000104849 0)
(-0.000410098 -0.000246688 0)
(-0.000927114 -0.000378305 0)
(-0.00160772 -0.000500166 0)
(-0.00243081 -0.000618754 0)
(-0.00338401 -0.000739899 0)
(-0.0044601 -0.000866648 0)
(-0.00565266 -0.000998826 0)
(-0.00695252 -0.00113336 0)
(-0.00834542 -0.00126493 0)
(-0.00981105 -0.00138673 0)
(-0.0113231 -0.00149123 0)
(-0.0128505 -0.00157091 0)
(-0.0143587 -0.00161883 0)
(-0.0158114 -0.00162913 0)
(-0.0171733 -0.0015973 0)
(-0.0184132 -0.00151992 0)
(2.53345e-05 1.46549e-05 0)
(-1.63869e-05 -3.93535e-05 0)
(-0.000222647 -0.000105549 0)
(-0.000570383 -0.0001657 0)
(-0.00103603 -0.000220576 0)
(-0.00160297 -0.000273714 0)
(-0.00226244 -0.000328203 0)
(-0.00301042 -0.000385728 0)
(-0.00384401 -0.000446416 0)
(-0.00475862 -0.000509017 0)
(-0.00574608 -0.000571207 0)
(-0.00679384 -0.000629939 0)
(-0.00788485 -0.000681786 0)
(-0.0089982 -0.000723262 0)
(-0.0101101 -0.00075108 0)
(-0.0111952 -0.000762382 0)
(-0.0122277 -0.000754881 0)
(-0.0131853 -0.000726431 0)
(2.36247e-05 8.88863e-06 0)
(1.77999e-05 -9.66535e-06 0)
(-9.22732e-05 -3.14781e-05 0)
(-0.000288964 -5.07467e-05 0)
(-0.000556218 -6.79769e-05 0)
(-0.000883182 -8.45531e-05 0)
(-0.00126473 -0.000101625 0)
(-0.00169908 -0.000119833 0)
(-0.00218543 -0.000139285 0)
(-0.0027221 -0.00015963 0)
(-0.0033053 -0.000180157 0)
(-0.00392857 -0.000199909 0)
(-0.00458267 -0.000217794 0)
(-0.00525587 -0.000232679 0)
(-0.0059345 -0.000243477 0)
(-0.00660361 -0.00024921 0)
(-0.00724766 -0.000249052 0)
(-0.00785326 -0.000241937 0)
(1.20095e-05 2.50058e-06 0)
(1.70071e-05 -2.51173e-07 0)
(-1.60203e-05 -2.04111e-06 0)
(-7.9101e-05 -3.51891e-06 0)
(-0.000165995 -4.76117e-06 0)
(-0.000272692 -5.93924e-06 0)
(-0.000397506 -7.16716e-06 0)
(-0.000540074 -8.50907e-06 0)
(-0.000700462 -9.98248e-06 0)
(-0.000878474 -1.15669e-05 0)
(-0.00107322 -1.32118e-05 0)
(-0.00128286 -1.48471e-05 0)
(-0.00150461 -1.63892e-05 0)
(-0.00173475 -1.77499e-05 0)
(-0.00196884 -1.88415e-05 0)
(-0.00220193 -1.95867e-05 0)
(-0.00242862 -1.98713e-05 0)
(-0.00264431 -1.95165e-05 0)
(2.58566e-05 -5.92173e-05 1.08458e-23)
(0.00020658 -0.000150775 -1.44612e-23)
(0.00051238 -0.000210742 0)
(0.000898338 -0.000240064 0)
(0.00130556 -0.000246144 0)
(0.0016903 -0.000235506 1.1418e-23)
(0.00202129 -0.000213718 0)
(0.00227619 -0.00018539 0)
(0.00243973 -0.000154041 0)
(0.00250221 -0.000122126 0)
(0.00245811 -9.11658e-05 4.95905e-24)
(0.0023048 -6.19327e-05 0)
(0.00204116 -3.46132e-05 0)
(0.00166681 -8.94976e-06 0)
(0.0011813 1.56165e-05 0)
(0.000583634 3.98155e-05 3.15628e-23)
(-0.000128004 6.44463e-05 0)
(-0.000956357 9.03028e-05 0)
(-0.00190493 0.000118114 0)
(-0.00297772 0.000148488 0)
(-0.00417886 0.000181866 0)
(-0.00551211 0.000218506 0)
(-0.00698043 0.000258475 0)
(-0.00858543 0.000301648 8.85553e-23)
(-0.0103269 0.000347715 -9.60822e-23)
(-0.0122024 0.000396183 1.03411e-22)
(-0.0142067 0.000446379 1.10411e-22)
(-0.0163316 0.000497457 0)
(-0.0185657 0.000548406 0)
(-0.0208941 0.000598059 -1.2789e-22)
(-0.0232981 0.000645116 -1.31968e-22)
(-0.0257559 0.000688165 0)
(-0.0282418 0.000725723 0)
(-0.0307272 0.000756275 -1.3636e-22)
(-0.0331807 0.000778333 0)
(-0.0355683 0.000790493 0)
(-0.0378547 0.000791499 1.25282e-22)
(-0.0400031 0.000780308 0)
(-0.0419768 0.000756151 1.0742e-22)
(-0.0437395 0.000718591 1.90197e-22)
(-0.0452561 0.000667561 0)
(-0.0464939 0.000603361 0)
(-0.0474229 0.000526497 0)
(-0.0480175 0.000437518 0)
(-0.0482573 0.000338139 0)
(-0.0481226 0.000233349 -4.86359e-23)
(-0.0475988 0.000121375 -1.00978e-22)
(-0.0466826 4.3748e-06 -1.55619e-22)
(-0.0453724 -0.000114888 0)
(-0.0436719 -0.000234093 2.69172e-22)
(-0.0415897 -0.000351156 0)
(-0.0391391 -0.000464172 -3.83514e-22)
(-0.036337 -0.000571458 -4.39001e-22)
(-0.0332041 -0.000671575 0)
(-0.0297638 -0.000763335 0)
(-0.0260419 -0.000845779 0)
(-0.0220664 -0.000918134 -6.30442e-22)
(-0.0178671 -0.000979759 0)
(-0.0134755 -0.00103008 0)
(-0.00892497 -0.00106847 0)
(-0.00425173 -0.00109391 0)
(0.000505592 -0.00110481 0)
(0.00530742 -0.00110004 0)
(0.0101099 -0.00107948 0)
(0.014864 -0.00104315 0)
(0.0195177 -0.000990742 6.45724e-22)
(0.0240155 -0.000921967 0)
(0.0282988 -0.000836836 0)
(0.0323068 -0.000735839 -4.96686e-22)
(0.0359772 -0.000620061 -4.35818e-22)
(0.0392485 -0.000491271 0)
(0.0420618 -0.000351961 3.03307e-22)
(0.0443631 -0.000205329 -2.34022e-22)
(0.0461059 -5.52277e-05 0)
(0.0472543 9.37745e-05 9.57137e-23)
(0.0477837 0.000236801 0)
(0.0476851 0.000370301 0)
(0.0469685 0.000488401 9.21616e-23)
(0.0456608 0.000588173 0)
(0.0438047 0.000666507 -1.91609e-22)
(0.0414599 0.000721501 0)
(0.0387017 0.000752376 2.6407e-22)
(0.0356166 0.000759638 2.89621e-22)
(0.0322996 0.000745039 3.0825e-22)
(0.0288487 0.000711399 6.4077e-22)
(0.0253607 0.000662339 -6.53291e-22)
(0.0219258 0.000601958 0)
(0.018624 0.000534485 0)
(0.015521 0.000463945 0)
(0.0126667 0.000393874 -6.18089e-22)
(0.0100943 0.000327109 -5.96403e-22)
(0.00782089 0.000265662 5.72571e-22)
(0.00584981 0.000210709 0)
(0.00417292 0.000162667 -5.22831e-22)
(0.00277382 0.000121383 -4.98531e-22)
(0.00163038 8.63835e-05 -4.75348e-22)
(0.000716707 5.71393e-05 0)
(4.18215e-06 3.32628e-05 0)
(-0.000537953 1.45866e-05 0)
(-0.000942061 1.06968e-06 -3.98678e-22)
(-0.00124118 -7.39522e-06 0)
(-0.00146748 -1.11479e-05 0)
(-0.00165042 -1.08362e-05 3.62112e-22)
(-0.00181482 -7.38065e-06 0)
(-0.00197964 -1.85229e-06 0)
(-0.00215742 4.68925e-06 3.40959e-22)
(-0.00235463 1.13312e-05 0)
(-0.00257257 1.73835e-05 0)
(-0.00280869 2.23943e-05 -3.28242e-22)
(-0.00305781 2.61215e-05 -3.24709e-22)
(-0.00331329 2.84858e-05 0)
(-0.00356796 2.95215e-05 3.17601e-22)
(-0.00381477 2.93361e-05 0)
(-0.00404727 2.80818e-05 -3.09687e-22)
(-0.00425992 2.59358e-05 0)
(-0.00444825 2.30873e-05 -3.00499e-22)
(-0.00460898 1.9728e-05 -2.95396e-22)
(-0.00474002 1.60444e-05 0)
(-0.00484041 1.22107e-05 0)
(-0.00491028 8.38189e-06 0)
(-0.00495065 4.6954e-06 0)
(-0.00496333 1.2948e-06 0)
(-0.00495071 -1.76332e-06 0)
(-0.00491564 -4.45679e-06 0)
(-0.00486125 -6.73033e-06 -2.47446e-22)
(-0.00479075 -8.56777e-06 2.41397e-22)
(-0.00470734 -9.98013e-06 0)
(-0.00461411 -1.09926e-05 0)
(-0.00451392 -1.16404e-05 0)
(-0.00440939 -1.19658e-05 0)
(-0.00430283 -1.20143e-05 4.2803e-22)
(-0.00419623 -1.18324e-05 0)
(-0.00409124 -1.1465e-05 -4.09365e-22)
(-0.00398922 -1.09543e-05 4.00736e-22)
(-0.00389124 -1.03382e-05 0)
(-0.00379811 -9.65015e-06 0)
(-0.00371038 -8.91877e-06 0)
(-0.00362842 -8.16784e-06 -3.70386e-22)
(-0.00355243 -7.41664e-06 -3.6369e-22)
(-0.00348246 -6.68036e-06 0)
(-0.00341845 -5.97055e-06 -3.51142e-22)
(-0.00336025 -5.29561e-06 -3.45227e-22)
(-0.00330763 -4.66128e-06 3.3951e-22)
(-0.00326033 -4.07116e-06 0)
(-0.00321803 -3.52709e-06 0)
(-0.00318041 -3.02956e-06 3.23293e-22)
(-0.00314712 -2.57799e-06 0)
(-0.00311783 -2.17104e-06 0)
(-0.00309217 -1.80677e-06 0)
(-0.00306983 -1.48287e-06 0)
(-0.00305047 -1.19673e-06 -2.98111e-22)
(-0.00303379 -9.45602e-07 -2.9321e-22)
(-0.0030195 -7.2664e-07 0)
(-0.0030073 -5.37e-07 -2.83457e-22)
(-0.00299697 -3.73853e-07 0)
(-0.00298825 -2.34432e-07 0)
(-0.00298093 -1.16015e-07 -2.68852e-22)
(-0.00297482 -1.5908e-08 0)
(-0.00296976 6.86268e-08 -2.59082e-22)
(-0.00296558 1.40332e-07 0)
(-0.00296218 2.02075e-07 0)
(-0.00295948 2.57819e-07 -2.44327e-22)
(-0.00295743 3.12537e-07 0)
(-0.00295604 3.72082e-07 -2.34408e-22)
(-0.00295539 4.42809e-07 0)
(-0.00295562 5.30313e-07 0)
(-0.00295692 6.36265e-07 0)
(-0.00295952 7.4869e-07 2.14258e-22)
(-0.00296363 8.37237e-07 0)
(-0.00296928 9.89721e-07 -2.03869e-22)
(-0.0029762 1.17063e-06 0)
(-0.00298365 1.25351e-06 0)
(-0.00299025 1.21163e-06 0)
(-0.00299363 1.06106e-06 0)
(-0.0029904 5.03475e-07 0)
(-0.00297585 -4.84595e-07 0)
(-0.00294236 -2.32899e-06 0)
(-0.00288036 -6.27038e-06 3.12549e-22)
(-0.00279015 -6.95465e-06 0)
(-0.00247301 -5.02626e-05 0)
(4.95385e-05 -0.000411744 -3.67077e-23)
(0.000388592 -0.00099414 4.93744e-23)
(0.000893895 -0.00134377 0)
(0.00148087 -0.00148371 -3.302e-23)
(0.00205001 -0.00145057 0)
(0.00252547 -0.00128338 -1.21952e-23)
(0.00284976 -0.0010179 2.26859e-23)
(0.00297876 -0.000684604 1.71802e-23)
(0.00287918 -0.000308 0)
(0.00252666 9.33487e-05 3.45014e-24)
(0.00190396 0.000506483 -5.32553e-24)
(0.000998869 0.000922978 0)
(-0.000197255 0.0013383 0)
(-0.00169103 0.00175098 0)
(-0.00348801 0.00216164 0)
(-0.00559339 0.0025722 -3.36383e-23)
(-0.00801229 0.00298507 0)
(-0.0107497 0.00340248 8.0885e-23)
(-0.0138099 0.00382588 0)
(-0.0171962 0.00425554 0)
(-0.0209097 0.00469028 -1.22181e-22)
(-0.0249483 0.00512729 0)
(-0.0293059 0.00556216 1.51466e-22)
(-0.0339711 0.00598893 -9.1523e-23)
(-0.0389266 0.00640023 9.88334e-23)
(-0.0441483 0.00678757 -1.05858e-22)
(-0.0496047 0.00714153 -1.12469e-22)
(-0.055257 0.00745206 0)
(-0.0610585 0.00770883 0)
(-0.0669556 0.00790155 1.28396e-22)
(-0.0728874 0.00802031 -1.20179e-22)
(-0.0787877 0.00805602 0)
(-0.0845847 0.00800068 0)
(-0.0902037 0.00784782 1.34687e-22)
(-0.0955672 0.00759275 0)
(-0.100598 0.00723284 0)
(-0.105218 0.00676775 -1.22792e-22)
(-0.109354 0.00619946 0)
(-0.112936 0.00553237 1.09069e-22)
(-0.1159 0.00477319 -1.85947e-22)
(-0.118188 0.00393075 0)
(-0.119751 0.00301564 0)
(-0.120548 0.0020397 -1.98167e-22)
(-0.120549 0.00101621 -1.1871e-22)
(-0.119728 -3.92669e-05 -3.09842e-23)
(-0.118079 -0.00111064 -1.59946e-23)
(-0.115602 -0.00218445 9.98783e-23)
(-0.112302 -0.00324586 4.26805e-22)
(-0.108198 -0.0042811 -3.8381e-22)
(-0.103313 -0.00527782 -2.69318e-22)
(-0.0976793 -0.00622524 0)
(-0.0913339 -0.00711421 3.87785e-22)
(-0.084319 -0.00793725 -4.02035e-22)
(-0.0766805 -0.00868848 0)
(-0.0684673 -0.00936346 0)
(-0.059731 -0.00995891 0)
(-0.0505248 -0.0104724 6.60658e-22)
(-0.0409037 -0.0109018 0)
(-0.0309245 -0.0112452 -1.43443e-21)
(-0.0206462 -0.0115 0)
(-0.0101313 -0.0116625 -1.54563e-21)
(0.000553068 -0.0117281 0)
(0.0113378 -0.0116913 1.53375e-21)
(0.0221465 -0.0115465 0)
(0.0328937 -0.0112883 -1.40658e-21)
(0.0434877 -0.0109112 6.35339e-22)
(0.0538295 -0.0104101 0)
(0.0638117 -0.00978101 1.10843e-21)
(0.07332 -0.00902228 5.15761e-22)
(0.0822336 -0.00813522 4.4995e-22)
(0.0904275 -0.00712498 0)
(0.0977751 -0.00600116 2.71152e-22)
(0.104152 -0.00477832 2.38531e-22)
(0.109439 -0.00347618 0)
(0.113529 -0.00211976 -9.7143e-23)
(0.116328 -0.000739313 3.17989e-23)
(0.117766 0.000630911 0)
(0.117796 0.00195702 -9.33933e-23)
(0.116414 0.00319875 0)
(0.113648 0.00432041 5.92503e-22)
(0.109565 0.00529015 0)
(0.104273 0.00608076 -8.06854e-22)
(0.0979235 0.00667219 -2.96703e-22)
(0.090699 0.00705355 3.06259e-22)
(0.0828123 0.0072243 6.3286e-22)
(0.0744935 0.00719442 -6.43157e-22)
(0.0659791 0.00698368 0)
(0.0574982 0.00661993 0)
(0.0492602 0.00613654 0)
(0.0414444 0.00556943 1.94926e-21)
(0.0341918 0.00495389 6.48846e-22)
(0.0276021 0.00432188 -6.27707e-22)
(0.0217339 0.00369995 0)
(0.0166083 0.00310835 -5.41344e-22)
(0.0122153 0.00256119 5.57221e-22)
(0.00851986 0.00206757 5.34019e-22)
(0.00546822 0.00163323 0)
(0.00299253 0.00126186 0)
(0.00101461 0.000955793 0)
(-0.000550487 0.000715773 4.5452e-22)
(-0.00179062 0.000540083 0)
(-0.00279159 0.000423825 -8.38043e-22)
(-0.003632 0.00035888 -1.22866e-21)
(-0.00437867 0.000334594 7.97768e-22)
(-0.00508346 0.000339071 0)
(-0.00578208 0.000360648 3.81573e-22)
(-0.00649488 0.000389132 0)
(-0.00722905 0.000416529 7.50028e-22)
(-0.00798163 0.00043726 -3.68009e-22)
(-0.00874266 0.000447982 -3.64295e-22)
(-0.00949809 0.000447189 0)
(-0.0102321 0.000434757 -1.08022e-21)
(-0.0109289 0.000411531 7.10443e-22)
(-0.0115742 0.000378981 3.52691e-22)
(-0.0121555 0.000338943 0)
(-0.0126635 0.000293423 3.4241e-22)
(-0.0130914 0.000244451 1.00808e-21)
(-0.0134355 0.00019397 0)
(-0.013695 0.000143752 6.47646e-22)
(-0.0138715 9.53329e-05 6.3496e-22)
(-0.0139689 4.99845e-05 6.21869e-22)
(-0.0139929 8.7175e-06 0)
(-0.0139503 -2.78075e-05 0)
(-0.0138491 -5.9234e-05 0)
(-0.0136977 -8.53818e-05 -2.84302e-22)
(-0.0135048 -0.000106305 -2.76783e-22)
(-0.0132786 -0.000122239 0)
(-0.0130274 -0.00013355 -5.29013e-22)
(-0.0127584 -0.000140696 -5.16888e-22)
(-0.0124784 -0.000144188 0)
(-0.0121933 -0.000144559 -4.92882e-22)
(-0.0119083 -0.000142338 -9.66974e-22)
(-0.0116276 -0.000138031 4.72218e-22)
(-0.0113547 -0.000132106 4.64892e-22)
(-0.0110924 -0.000124983 0)
(-0.0108426 -0.00011703 0)
(-0.0106069 -0.000108565 0)
(-0.0103863 -9.98502e-05 4.29073e-22)
(-0.0101814 -9.11017e-05 -4.23211e-22)
(-0.00999215 -8.24908e-05 -8.30541e-22)
(-0.00981859 -7.41495e-05 4.07755e-22)
(-0.00966032 -6.61761e-05 -4.02339e-22)
(-0.00951681 -5.86402e-05 -3.9485e-22)
(-0.00938736 -5.15876e-05 0)
(-0.00927122 -4.50446e-05 0)
(-0.00916754 -3.90223e-05 3.77512e-22)
(-0.00907545 -3.35195e-05 0)
(-0.00899406 -2.85257e-05 0)
(-0.00892249 -2.40233e-05 -7.19961e-22)
(-0.00885985 -1.99897e-05 0)
(-0.00880531 -1.63988e-05 -3.48985e-22)
(-0.00875804 -1.32218e-05 3.43167e-22)
(-0.00871728 -1.04287e-05 0)
(-0.0086823 -7.9888e-06 -3.32362e-22)
(-0.00865243 -5.87101e-06 0)
(-0.00862702 -4.0445e-06 0)
(-0.00860551 -2.47855e-06 3.15693e-22)
(-0.00858738 -1.14233e-06 -6.20376e-22)
(-0.00857216 -4.19392e-09 3.04613e-22)
(-0.00855946 9.69418e-07 0)
(-0.00854895 1.8157e-06 0)
(-0.00854038 2.57838e-06 -2.878e-22)
(-0.00853364 3.30926e-06 0)
(-0.00852871 4.06804e-06 -2.76443e-22)
(-0.00852573 4.91863e-06 0)
(-0.00852499 5.91871e-06 0)
(-0.00852689 7.09968e-06 0)
(-0.00853185 8.43261e-06 -2.53361e-22)
(-0.00854012 9.79236e-06 0)
(-0.00855152 1.10623e-05 2.41382e-22)
(-0.00856506 1.18588e-05 0)
(-0.00857841 1.15512e-05 0)
(-0.00858741 9.42598e-06 -4.44611e-22)
(-0.00858559 4.67753e-06 4.31142e-22)
(-0.0085637 -4.01314e-06 0)
(-0.00850905 -1.80094e-05 0)
(-0.00840307 -3.98364e-05 0)
(-0.00822438 -7.38851e-05 -1.11852e-21)
(-0.00796173 -0.00013016 0)
(-0.0073318 -0.000263939 6.81892e-22)
(4.70268e-05 -0.000847847 -7.41278e-24)
(0.00034329 -0.00192821 -7.68184e-23)
(0.000730441 -0.00248091 0)
(0.00111048 -0.00259335 7.36952e-23)
(0.00137725 -0.00235031 0)
(0.00145025 -0.00183006 0)
(0.00126731 -0.0011014 7.1035e-24)
(0.000778767 -0.00022257 -1.72401e-23)
(-5.50254e-05 0.000759402 -1.83752e-23)
(-0.00126543 0.0018081 -3.45078e-24)
(-0.0028772 0.00289658 0)
(-0.00490976 0.00400637 0)
(-0.00737843 0.00512598 -1.30374e-23)
(-0.0102954 0.00624927 -4.48277e-23)
(-0.0136703 0.00737379 6.47695e-23)
(-0.0175103 0.00849918 0)
(-0.0218201 0.00962552 1.08267e-22)
(-0.0266015 0.010752 -7.83535e-23)
(-0.0318522 0.0118759 0)
(-0.0375652 0.0129913 1.82473e-22)
(-0.0437274 0.0140893 1.16947e-22)
(-0.0503186 0.0151573 -2.372e-22)
(-0.05731 0.0161794 -1.43784e-22)
(-0.0646639 0.0171367 0)
(-0.072333 0.0180082 3.23641e-22)
(-0.08026 0.018771 3.52389e-22)
(-0.0883778 0.0194019 0)
(-0.0966106 0.0198775 4.07216e-22)
(-0.104874 0.0201758 0)
(-0.113078 0.0202767 4.54857e-22)
(-0.121126 0.0201631 2.33205e-22)
(-0.128921 0.0198215 0)
(-0.136361 0.0192425 0)
(-0.143348 0.0184217 0)
(-0.149787 0.0173595 0)
(-0.155586 0.0160614 0)
(-0.160662 0.0145382 0)
(-0.164938 0.0128052 4.69449e-22)
(-0.168348 0.0108822 -6.3896e-22)
(-0.170836 0.00879273 0)
(-0.172356 0.00656331 0)
(-0.172876 0.00422261 0)
(-0.172372 0.00180109 -5.43018e-23)
(-0.170831 -0.000668906 1.10945e-22)
(-0.168259 -0.00315478 1.14203e-22)
(-0.164664 -0.00562652 6.31342e-23)
(-0.160068 -0.00805414 9.82388e-23)
(-0.154497 -0.0104114 -2.55856e-22)
(-0.147986 -0.0126746 5.68427e-23)
(-0.140578 -0.0148235 -4.13323e-22)
(-0.132319 -0.0168409 0)
(-0.123259 -0.0187129 -6.37071e-22)
(-0.113454 -0.020429 5.65416e-23)
(-0.10296 -0.0219817 0)
(-0.0918334 -0.0233662 0)
(-0.0801333 -0.0245792 1.068e-21)
(-0.0679186 -0.0256191 0)
(-0.0552482 -0.0264844 0)
(-0.0421819 -0.0271733 -1.26768e-21)
(-0.0287804 -0.0276828 -2.7851e-21)
(-0.0151076 -0.0280079 1.50596e-21)
(-0.00123129 -0.0281415 0)
(0.0127795 -0.0280737 -1.50147e-21)
(0.02685 -0.0277919 0)
(0.0408923 -0.0272823 -1.24847e-21)
(0.0548111 -0.0265309 -1.2764e-21)
(0.0685025 -0.0255241 2.23876e-21)
(0.0818522 -0.0242495 9.53829e-22)
(0.0947353 -0.0226984 0)
(0.107017 -0.0208665 -1.52773e-21)
(0.118554 -0.018756 0)
(0.129195 -0.0163769 -1.55066e-21)
(0.138786 -0.0137482 -7.30224e-22)
(0.147171 -0.0108991 -4.64995e-22)
(0.154195 -0.00786944 2.07302e-22)
(0.159714 -0.00471026 8.72009e-24)
(0.163598 -0.00148385 0)
(0.165734 0.00173872 0)
(0.166029 0.00487266 -6.63227e-22)
(0.164444 0.0078326 -1.19382e-21)
(0.160981 0.0105344 0)
(0.155692 0.0128979 5.00506e-22)
(0.148688 0.0148521 0)
(0.14014 0.0163409 -1.77389e-21)
(0.130276 0.0173292 2.06521e-23)
(0.119374 0.0178062 -8.19716e-24)
(0.10775 0.017788 1.24548e-21)
(0.0957419 0.0173167 0)
(0.0836871 0.0164568 -1.21381e-21)
(0.0719021 0.0152889 -2.92791e-23)
(0.0606638 0.0139021 0)
(0.050195 0.0123851 0)
(0.0406563 0.0108191 0)
(0.0321453 0.00927276 1.0892e-21)
(0.0247006 0.00779972 0)
(0.01831 0.00643952 0)
(0.0129203 0.00522011 0)
(0.00844605 0.00416057 0)