/*--------------------------------*- C++ -*----------------------------------*\
  =========                 |
  \\      /  F ield         | OpenFOAM: The Open Source CFD Toolbox
   \\    /   O peration     | Website:  https://openfoam.org
    \\  /    A nd           | Version:  8
     \\/     M anipulation  |
\*---------------------------------------------------------------------------*/
FoamFile
{
    version     2.0;
    format      ascii;
    class       volScalarField;
    location    "0.42";
    object      p;
}
// * * * * * * * * * * * * * * * * * * * * * * * * * * * * * * * * * * * * * //

dimensions      [0 2 -2 0 0 0 0];

internalField   nonuniform List<scalar> 
12225
(
-0.0181818
-0.0181316
-0.0180889
-0.0180577
-0.0180396
-0.0180335
-0.0180419
-0.0180715
-0.0181326
-0.0182384
-0.0184036
-0.0186427
-0.0189712
-0.0194106
-0.0200038
-0.0208508
-0.0222636
-0.025783
-0.0181821
-0.0181369
-0.0180981
-0.01807
-0.0180554
-0.0180541
-0.018069
-0.0181064
-0.0181763
-0.018291
-0.018464
-0.0187088
-0.0190394
-0.0194755
-0.0200526
-0.0208481
-0.0220326
-0.0244197
-0.0181844
-0.0181436
-0.018109
-0.0180848
-0.0180745
-0.0180789
-0.0181012
-0.0181476
-0.0182275
-0.018352
-0.0185332
-0.018783
-0.0191133
-0.0195397
-0.0200867
-0.0208
-0.0217113
-0.0232086
-0.0181889
-0.018151
-0.0181199
-0.0180992
-0.0180931
-0.018103
-0.0181323
-0.0181871
-0.0182757
-0.0184085
-0.0185958
-0.0188478
-0.0191735
-0.0195825
-0.0200865
-0.0207008
-0.021387
-0.0223254
-0.0181955
-0.0181589
-0.0181305
-0.0181133
-0.0181113
-0.0181264
-0.0181622
-0.0182244
-0.0183206
-0.01846
-0.0186516
-0.0189032
-0.0192205
-0.0196068
-0.0200611
-0.0205754
-0.0210872
-0.0216722
-0.0182036
-0.0181673
-0.0181411
-0.018127
-0.018129
-0.0181492
-0.0181911
-0.01826
-0.0183628
-0.0185076
-0.0187019
-0.0189513
-0.0192579
-0.0196188
-0.0200228
-0.0204466
-0.0208252
-0.0211839
-0.0182128
-0.018176
-0.0181513
-0.0181402
-0.018146
-0.018171
-0.0182186
-0.0182936
-0.0184022
-0.0185514
-0.0187473
-0.0189933
-0.0192883
-0.0196241
-0.0199822
-0.0203312
-0.0206132
-0.0208348
-0.0182226
-0.0181847
-0.0181609
-0.0181525
-0.0181619
-0.0181915
-0.0182443
-0.0183247
-0.0184384
-0.0185913
-0.0187881
-0.0190305
-0.0193145
-0.019628
-0.0199481
-0.0202409
-0.0204596
-0.0206073
-0.0182323
-0.0181929
-0.0181696
-0.0181636
-0.0181763
-0.0182101
-0.0182676
-0.018353
-0.0184712
-0.0186272
-0.0188249
-0.0190643
-0.0193393
-0.0196354
-0.0199278
-0.0201836
-0.0203674
-0.0204839
-0.0182411
-0.0181999
-0.0181767
-0.0181728
-0.0181886
-0.0182262
-0.0182881
-0.018378
-0.0185002
-0.0186593
-0.0188582
-0.019096
-0.0193653
-0.0196501
-0.019926
-0.0201629
-0.0203347
-0.020448
-0.0182482
-0.0182051
-0.0181818
-0.0181797
-0.0181983
-0.0182393
-0.0183051
-0.018399
-0.018525
-0.0186873
-0.0188882
-0.0191263
-0.0193935
-0.0196739
-0.019944
-0.0201773
-0.0203544
-0.0204824
-0.0182521
-0.0182074
-0.0181838
-0.0181832
-0.0182041
-0.0182478
-0.0183168
-0.0184139
-0.0185432
-0.0187085
-0.0189122
-0.0191523
-0.019421
-0.0197029
-0.0199759
-0.0202168
-0.0204097
-0.0205603
-0.0182524
-0.0182071
-0.0181832
-0.0181839
-0.0182068
-0.018253
-0.0183247
-0.0184249
-0.0185573
-0.0187259
-0.0189328
-0.0191764
-0.019449
-0.0197363
-0.020018
-0.0202733
-0.0204884
-0.020665
-0.0182471
-0.0182022
-0.0181781
-0.0181801
-0.0182049
-0.0182534
-0.0183275
-0.0184305
-0.018566
-0.018738
-0.018949
-0.0191975
-0.0194768
-0.0197738
-0.0200703
-0.0203473
-0.0205915
-0.0208001
-0.0182319
-0.0181888
-0.0181652
-0.0181683
-0.0181947
-0.0182447
-0.0183204
-0.018425
-0.0185626
-0.0187373
-0.0189519
-0.0192057
-0.019493
-0.0198022
-0.0201171
-0.0204196
-0.0206955
-0.0209372
-0.0182002
-0.0181609
-0.0181393
-0.0181437
-0.0181708
-0.0182207
-0.0182956
-0.0183991
-0.0185356
-0.0187096
-0.0189244
-0.01918
-0.019472
-0.0197904
-0.0201204
-0.0204446
-0.0207462
-0.0210131
-0.018142
-0.0181102
-0.0180932
-0.018099
-0.0181251
-0.0181717
-0.0182412
-0.0183377
-0.0184659
-0.0186307
-0.0188358
-0.019082
-0.0193658
-0.0196786
-0.020007
-0.0203338
-0.02064
-0.0209095
-0.018045
-0.0180259
-0.0180173
-0.0180246
-0.0180468
-0.0180844
-0.0181401
-0.0182183
-0.018324
-0.0184621
-0.0186365
-0.0188483
-0.0190949
-0.019369
-0.0196586
-0.0199475
-0.0202162
-0.0204461
-0.0178983
-0.0178984
-0.0179017
-0.0179094
-0.0179224
-0.0179421
-0.0179713
-0.0180137
-0.0180739
-0.0181563
-0.0182639
-0.0183979
-0.018556
-0.0187323
-0.0189169
-0.0190961
-0.0192524
-0.0193679
-0.0177523
-0.0177724
-0.017787
-0.0177939
-0.0177965
-0.017797
-0.0177975
-0.0178009
-0.0178104
-0.0178289
-0.0178581
-0.017898
-0.0179461
-0.0179973
-0.0180436
-0.0180744
-0.0180755
-0.0180317
-0.0176561
-0.0176916
-0.0177148
-0.0177209
-0.0177157
-0.0177017
-0.0176806
-0.0176541
-0.0176242
-0.0175924
-0.0175593
-0.0175241
-0.0174843
-0.0174353
-0.0173707
-0.0172821
-0.0171584
-0.0169879
-0.0175994
-0.0176458
-0.0176746
-0.0176801
-0.0176693
-0.0176449
-0.0176077
-0.0175587
-0.0174985
-0.0174275
-0.0173451
-0.01725
-0.0171394
-0.0170091
-0.016854
-0.0166677
-0.0164416
-0.0161668
-0.0175767
-0.0176296
-0.0176616
-0.017667
-0.0176534
-0.0176225
-0.0175748
-0.0175104
-0.0174289
-0.0173297
-0.0172113
-0.0170716
-0.0169077
-0.0167157
-0.0164915
-0.0162301
-0.0159253
-0.0155704
-0.017579
-0.0176345
-0.0176684
-0.017675
-0.0176609
-0.017627
-0.0175735
-0.0174998
-0.0174049
-0.0172871
-0.0171443
-0.0169738
-0.0167723
-0.0165362
-0.0162617
-0.0159452
-0.0155819
-0.0151673
-0.017596
-0.0176521
-0.0176876
-0.0176969
-0.0176842
-0.0176501
-0.0175943
-0.017516
-0.0174137
-0.0172852
-0.0171275
-0.0169375
-0.0167116
-0.016446
-0.0161372
-0.0157821
-0.0153773
-0.0149197
-0.017619
-0.0176753
-0.0177134
-0.0177266
-0.0177169
-0.0176844
-0.0176288
-0.0175493
-0.0174441
-0.0173105
-0.0171453
-0.0169445
-0.0167044
-0.0164208
-0.0160903
-0.0157099
-0.015277
-0.0147896
-0.0176417
-0.0176995
-0.0177419
-0.0177602
-0.0177543
-0.0177243
-0.0176706
-0.0175921
-0.0174872
-0.0173527
-0.017185
-0.01698
-0.0167332
-0.0164403
-0.0160975
-0.0157019
-0.015251
-0.0147439
-0.01766
-0.0177223
-0.0177714
-0.0177956
-0.0177939
-0.0177671
-0.0177161
-0.0176402
-0.0175376
-0.0174051
-0.0172388
-0.0170341
-0.0167861
-0.0164902
-0.0161421
-0.0157387
-0.0152774
-0.0147575
-0.0176714
-0.0177427
-0.0178007
-0.0178313
-0.0178338
-0.0178105
-0.0177627
-0.0176904
-0.0175916
-0.0174631
-0.0173008
-0.0170996
-0.0168544
-0.0165599
-0.0162116
-0.0158058
-0.0153396
-0.0148124
-0.0176757
-0.017758
-0.0178241
-0.01786
-0.017866
-0.0178454
-0.0178005
-0.0177313
-0.0176362
-0.0175119
-0.0173539
-0.017157
-0.0169158
-0.0166245
-0.0162783
-0.0158729
-0.0154054
-0.014875
-0.00809649
-0.00807686
-0.00806407
-0.00806955
-0.00809687
-0.00814732
-0.00822134
-0.00831857
-0.00843811
-0.00857887
-0.00873994
-0.0089209
-0.00912216
-0.00934502
-0.00959171
-0.00986524
-0.0101691
-0.0105071
-0.0108824
-0.0112977
-0.0117544
-0.0122523
-0.0127896
-0.0133622
-0.0139635
-0.0145844
-0.0152124
-0.015832
-0.0164236
-0.0169641
-0.0174264
-0.01778
-0.0179917
-0.0180259
-0.0178467
-0.0174185
-0.0167082
-0.0156868
-0.0143313
-0.0126262
-0.0105652
-0.00815235
-0.00540257
-0.00234252
0.000990427
0.00455024
0.00827739
0.0121064
0.0159658
0.0197798
0.0234715
0.0269653
0.0301897
0.0330792
0.0355763
0.0376333
0.039213
0.0402897
0.0408491
0.0408882
0.0404146
0.0394463
0.0380101
0.03614
0.0338766
0.0312676
0.0283651
0.0252245
0.0219032
0.0184602
0.0149542
0.0114427
0.00798067
0.00461935
0.0014045
-0.00162373
-0.00443265
-0.0069967
-0.00929798
-0.0113264
-0.0130794
-0.0145612
-0.0157823
-0.0167578
-0.0175073
-0.0180527
-0.0184178
-0.0186273
-0.0187056
-0.0186765
-0.0185626
-0.0183845
-0.0181612
-0.0179093
-0.0176432
-0.0173748
-0.0171139
-0.0168678
-0.0166416
-0.0164383
-0.0162589
-0.0161029
-0.0159682
-0.0158518
-0.0157499
-0.0156581
-0.0155723
-0.0154881
-0.0154016
-0.0153093
-0.0152086
-0.0150971
-0.0149735
-0.0148369
-0.0146871
-0.0145244
-0.0143497
-0.0141641
-0.013969
-0.0137661
-0.0135571
-0.0133438
-0.0131279
-0.0129109
-0.0126944
-0.0124797
-0.0122679
-0.0120601
-0.011857
-0.0116591
-0.0114671
-0.0112811
-0.0111013
-0.0109278
-0.0107605
-0.0105993
-0.010444
-0.0102944
-0.0101501
-0.0100109
-0.00987635
-0.00974618
-0.00962001
-0.0094975
-0.00937827
-0.00926201
-0.00914837
-0.00903703
-0.00892769
-0.00882005
-0.00871383
-0.00860879
-0.00850467
-0.00840125
-0.00829832
-0.00819569
-0.00809317
-0.00799059
-0.00788781
-0.00778468
-0.00768105
-0.00757681
-0.00747182
-0.00736597
-0.00725911
-0.00715112
-0.00704182
-0.00693099
-0.0068183
-0.00670323
-0.00658496
-0.00646231
-0.00633346
-0.00619627
-0.00604842
-0.00588768
-0.00571291
-0.00552925
-0.00533984
-0.00509166
-0.00811828
-0.00809343
-0.00807761
-0.00808143
-0.00810515
-0.008148
-0.0082095
-0.00828896
-0.00838547
-0.00849813
-0.00862641
-0.0087703
-0.00893054
-0.00910869
-0.00930717
-0.009529
-0.00977766
-0.0100567
-0.0103693
-0.0107183
-0.0111053
-0.011531
-0.0119945
-0.0124934
-0.0130235
-0.0135782
-0.0141483
-0.0147213
-0.0152813
-0.0158084
-0.0162787
-0.0166639
-0.0169322
-0.0170487
-0.0169764
-0.0166777
-0.0161162
-0.0152586
-0.0140767
-0.0125497
-0.010666
-0.00842486
-0.005838
-0.00292833
0.000272814
0.00371936
0.00735426
0.0111097
0.014912
0.0186833
0.0223448
0.025819
0.0290325
0.0319181
0.0344171
0.0364808
0.0380714
0.0391629
0.0397406
0.0398018
0.0393541
0.0384146
0.0370096
0.035174
0.0329496
0.0303845
0.0275311
0.0244445
0.0211822
0.0178028
0.0143647
0.0109251
0.0075382
0.00425445
0.00111921
-0.00182899
-0.00455902
-0.00704719
-0.00927713
-0.0112402
-0.012935
-0.0143668
-0.0155467
-0.0164901
-0.0172163
-0.0177468
-0.0181046
-0.0183133
-0.0183963
-0.0183762
-0.0182743
-0.0181104
-0.0179024
-0.0176663
-0.0174158
-0.0171625
-0.0169158
-0.0166829
-0.0164687
-0.0162763
-0.0161069
-0.01596
-0.0158336
-0.015725
-0.0156305
-0.015546
-0.0154673
-0.0153903
-0.015311
-0.015226
-0.0151326
-0.0150284
-0.014912
-0.0147824
-0.0146394
-0.0144832
-0.0143146
-0.0141347
-0.0139449
-0.0137468
-0.0135421
-0.0133327
-0.0131201
-0.0129061
-0.0126922
-0.0124796
-0.0122697
-0.0120633
-0.0118613
-0.0116644
-0.011473
-0.0112875
-0.011108
-0.0109346
-0.0107674
-0.0106062
-0.0104507
-0.0103009
-0.0101564
-0.0100168
-0.009882
-0.00975149
-0.00962497
-0.0095021
-0.00938253
-0.00926592
-0.00915194
-0.00904028
-0.00893063
-0.0088227
-0.00871622
-0.00861092
-0.00850656
-0.00840292
-0.00829979
-0.00819697
-0.00809428
-0.00799155
-0.00788863
-0.00778537
-0.00768164
-0.00757729
-0.00747222
-0.00736628
-0.00725934
-0.00715126
-0.00704187
-0.00693092
-0.00681806
-0.00670278
-0.00658427
-0.00646132
-0.00633243
-0.00619567
-0.00604905
-0.00589074
-0.00572001
-0.00554299
-0.00536117
-0.00512555
-0.00805139
-0.00802842
-0.00801503
-0.00802108
-0.00804492
-0.00808422
-0.00813745
-0.00820325
-0.00828029
-0.0083675
-0.00846432
-0.00857097
-0.00868862
-0.00881949
-0.00896678
-0.00913444
-0.00932698
-0.00954905
-0.00980523
-0.0100997
-0.0104362
-0.0108175
-0.0112459
-0.0117222
-0.0122461
-0.012815
-0.0134235
-0.0140625
-0.0147183
-0.0153721
-0.0159989
-0.016568
-0.017043
-0.0173828
-0.017543
-0.0174778
-0.0171428
-0.016497
-0.0155059
-0.0141434
-0.0123953
-0.0102602
-0.00774814
-0.00487792
-0.00168538
0.00177401
0.00543679
0.00923214
0.0130828
0.0169076
0.0206246
0.0241539
0.0274199
0.0303544
0.0328979
0.0350017
0.0366283
0.0377526
0.0383611
0.038452
0.0380341
0.0371251
0.035753
0.0339527
0.0317654
0.0292392
0.0264263
0.0233819
0.0201635
0.01683
0.0134402
0.010052
0.00672031
0.00349615
0.000425149
-0.00245356
-0.00510868
-0.00751771
-0.00966583
-0.0115461
-0.013159
-0.0145119
-0.0156176
-0.0164933
-0.0171596
-0.0176388
-0.0179543
-0.0181295
-0.0181874
-0.0181497
-0.0180369
-0.0178676
-0.0176588
-0.0174254
-0.0171804
-0.0169346
-0.0166968
-0.0164737
-0.01627
-0.0160883
-0.0159298
-0.0157937
-0.0156782
-0.0155802
-0.0154962
-0.0154221
-0.0153536
-0.0152865
-0.0152169
-0.0151413
-0.0150568
-0.0149612
-0.0148529
-0.0147309
-0.0145949
-0.0144452
-0.0142825
-0.014108
-0.013923
-0.0137292
-0.0135283
-0.0133222
-0.0131125
-0.012901
-0.0126892
-0.0124785
-0.0122701
-0.012065
-0.011864
-0.0116679
-0.0114772
-0.0112921
-0.011113
-0.0109398
-0.0107727
-0.0106115
-0.0104561
-0.0103061
-0.0101614
-0.0100217
-0.00988667
-0.00975592
-0.00962915
-0.00950602
-0.00938618
-0.00926931
-0.00915507
-0.00904315
-0.00893325
-0.00882508
-0.00871837
-0.00861285
-0.00850829
-0.00840447
-0.00830116
-0.00819818
-0.00809534
-0.00799248
-0.00788944
-0.00778607
-0.00768224
-0.0075778
-0.00747265
-0.00736664
-0.00725963
-0.00715149
-0.00704202
-0.00693098
-0.00681802
-0.00670262
-0.00658402
-0.00646112
-0.00633252
-0.00619657
-0.00605164
-0.00589628
-0.0057301
-0.00555985
-0.00538699
-0.00516251
-0.00787709
-0.00786811
-0.00786848
-0.00788466
-0.00791473
-0.00795599
-0.00800634
-0.00806387
-0.00812683
-0.00819382
-0.00826437
-0.00833917
-0.00842032
-0.00851143
-0.00861749
-0.00874474
-0.00890034
-0.00909205
-0.009328
-0.00961642
-0.00996551
-0.0103832
-0.0108768
-0.0114526
-0.0121146
-0.0128636
-0.0136957
-0.0146011
-0.0155622
-0.0165534
-0.0175404
-0.0184807
-0.019325
-0.0200188
-0.020505
-0.0207271
-0.0206321
-0.0201734
-0.019314
-0.0180286
-0.0163059
-0.014147
-0.011563
-0.00858558
-0.00526714
-0.00166624
0.00214921
0.0061027
0.0101118
0.0140912
0.0179552
0.0216212
0.0250118
0.0280578
0.0306997
0.0328894
0.0345909
0.0357807
0.0364474
0.0365913
0.0362227
0.035361
0.0340359
0.0322824
0.0301407
0.0276586
0.0248878
0.0218829
0.0187017
0.0154032
0.0120474
0.00869332
0.00539764
0.00221332
-0.000812109
-0.00363777
-0.00623047
-0.00856655
-0.0106318
-0.0124201
-0.0139339
-0.0151825
-0.0161816
-0.0169515
-0.0175156
-0.0178987
-0.0181264
-0.0182237
-0.0182141
-0.0181197
-0.0179606
-0.0177548
-0.0175183
-0.017265
-0.0170068
-0.0167535
-0.016513
-0.0162911
-0.0160917
-0.0159169
-0.0157671
-0.0156412
-0.0155369
-0.0154507
-0.0153787
-0.0153166
-0.0152598
-0.015204
-0.015145
-0.0150793
-0.0150038
-0.0149163
-0.0148151
-0.0146994
-0.0145688
-0.0144237
-0.0142649
-0.0140936
-0.0139114
-0.0137198
-0.0135208
-0.0133162
-0.0131078
-0.0128974
-0.0126865
-0.0124765
-0.0122687
-0.0120642
-0.0118637
-0.0116681
-0.0114777
-0.0112929
-0.0111141
-0.0109412
-0.0107742
-0.0106131
-0.0104578
-0.0103079
-0.0101633
-0.0100236
-0.00988853
-0.00975776
-0.00963095
-0.00950776
-0.00938785
-0.0092709
-0.00915658
-0.00904457
-0.00893458
-0.00882632
-0.00871952
-0.00861391
-0.00850927
-0.00840536
-0.00830197
-0.00819891
-0.008096
-0.00799308
-0.00788998
-0.00778655
-0.00768267
-0.0075782
-0.00747301
-0.00736697
-0.00725994
-0.00715178
-0.0070423
-0.00693125
-0.0068183
-0.00670295
-0.00658451
-0.00646198
-0.00633411
-0.00619946
-0.00605667
-0.00590452
-0.00574283
-0.00557792
-0.00541083
-0.00520117
-0.00761146
-0.00762866
-0.00765506
-0.00769061
-0.00773403
-0.0077833
-0.00783638
-0.00789121
-0.00794603
-0.00799982
-0.00805287
-0.00810716
-0.00816671
-0.00823771
-0.00832848
-0.00844927
-0.00861201
-0.00882991
-0.00911719
-0.00948874
-0.00995961
-0.0105444
-0.0112563
-0.0121054
-0.0130973
-0.014231
-0.0154968
-0.016875
-0.0183348
-0.0198343
-0.0213218
-0.0227369
-0.0240141
-0.0250852
-0.0258833
-0.0263458
-0.0264176
-0.0260538
-0.0252218
-0.0239028
-0.0220917
-0.0197958
-0.0170432
-0.013879
-0.0103565
-0.00653963
-0.00250266
0.00167243
0.0058984
0.0100857
0.0141455
0.0179925
0.0215481
0.0247423
0.0275161
0.0298226
0.0316279
0.0329108
0.0336627
0.0338862
0.0335935
0.0328061
0.0315532
0.0298696
0.0277964
0.0253802
0.0226714
0.019724
0.016595
0.0133437
0.010031
0.00671715
0.00346121
0.000318649
-0.00266015
-0.00543155
-0.00795955
-0.0102184
-0.0121927
-0.0138763
-0.0152725
-0.0163928
-0.0172555
-0.0178845
-0.0183072
-0.0185523
-0.0186489
-0.0186249
-0.018506
-0.0183157
-0.0180745
-0.0178003
-0.0175083
-0.0172114
-0.0169203
-0.0166434
-0.0163874
-0.0161567
-0.0159542
-0.015781
-0.0156363
-0.0155185
-0.0154241
-0.0153493
-0.0152893
-0.0152394
-0.0151946
-0.01515
-0.0151014
-0.015045
-0.0149776
-0.0148969
-0.0148013
-0.0146899
-0.0145627
-0.01442
-0.0142628
-0.0140925
-0.0139107
-0.0137192
-0.0135201
-0.0133152
-0.0131064
-0.0128956
-0.0126844
-0.0124741
-0.0122661
-0.0120614
-0.0118609
-0.0116653
-0.011475
-0.0112904
-0.0111117
-0.010939
-0.0107722
-0.0106114
-0.0104562
-0.0103066
-0.0101622
-0.0100227
-0.00988779
-0.00975718
-0.00963051
-0.00950745
-0.00938766
-0.0092708
-0.00915656
-0.00904463
-0.00893469
-0.00882648
-0.00871971
-0.00861413
-0.00850951
-0.00840561
-0.00830223
-0.00819918
-0.00809627
-0.00799335
-0.00789024
-0.00778682
-0.00768294
-0.00757848
-0.0074733
-0.00736727
-0.00726026
-0.00715213
-0.00704268
-0.0069317
-0.00681886
-0.00670372
-0.00658565
-0.00646379
-0.00633707
-0.00620423
-0.00606408
-0.00591556
-0.00575856
-0.00559801
-0.00543454
-0.00524326
-0.007282
-0.00733562
-0.0073982
-0.00746072
-0.00752345
-0.00758621
-0.00764777
-0.00770682
-0.00776255
-0.00781533
-0.00786734
-0.00792316
-0.00799021
-0.00807899
-0.00820303
-0.00837873
-0.00862497
-0.00896266
-0.00941408
-0.010002
-0.0107486
-0.0116736
-0.0127923
-0.0141133
-0.0156355
-0.0173469
-0.0192219
-0.0212217
-0.0232945
-0.0253776
-0.0273998
-0.0292853
-0.0309567
-0.0323397
-0.0333652
-0.0339729
-0.0341129
-0.0337477
-0.0328528
-0.0314173
-0.0294451
-0.0269576
-0.0239906
-0.0205914
-0.0168187
-0.0127428
-0.00844335
-0.00400775
0.000472077
0.00490244
0.00919107
0.0132502
0.0169996
0.0203688
0.0232994
0.0257462
0.0276777
0.0290757
0.0299347
0.0302602
0.0300666
0.0293772
0.0282208
0.0266321
0.0246519
0.0223253
0.0197007
0.0168307
0.0137715
0.0105825
0.0073252
0.00406191
0.000854028
-0.00223975
-0.00516548
-0.00787582
-0.0103316
-0.0125042
-0.0143753
-0.0159387
-0.0171977
-0.0181655
-0.0188631
-0.0193182
-0.0195625
-0.0196299
-0.019554
-0.0193669
-0.0190979
-0.0187728
-0.0184135
-0.0180383
-0.017662
-0.0172967
-0.0169516
-0.0166336
-0.0163476
-0.0160966
-0.0158818
-0.0157029
-0.015558
-0.0154438
-0.0153564
-0.0152904
-0.0152405
-0.0152011
-0.0151667
-0.0151318
-0.0150919
-0.0150428
-0.0149814
-0.0149052
-0.0148127
-0.0147032
-0.0145766
-0.0144337
-0.0142755
-0.0141036
-0.01392
-0.0137265
-0.0135252
-0.0133183
-0.0131076
-0.0128951
-0.0126824
-0.0124709
-0.0122619
-0.0120565
-0.0118555
-0.0116596
-0.0114691
-0.0112845
-0.0111059
-0.0109334
-0.010767
-0.0106065
-0.0104517
-0.0103024
-0.0101583
-0.0100192
-0.00988468
-0.00975441
-0.00962807
-0.00950531
-0.00938579
-0.00926919
-0.00915518
-0.00904346
-0.00893371
-0.00882567
-0.00871905
-0.0086136
-0.0085091
-0.0084053
-0.00830201
-0.00819903
-0.0080962
-0.00799333
-0.00789028
-0.00778691
-0.00768308
-0.00757866
-0.00747353
-0.00736755
-0.00726061
-0.00715254
-0.00704319
-0.00693233
-0.00681969
-0.00670488
-0.00658737
-0.00646646
-0.00634123
-0.00621063
-0.00607357
-0.00592907
-0.00577697
-0.00562019
-0.00545922
-0.00528731
-0.00693007
-0.00702759
-0.00713359
-0.00722837
-0.00731487
-0.00739595
-0.00747246
-0.00754496
-0.0076149
-0.00768542
-0.00776213
-0.0078539
-0.00797338
-0.00813725
-0.00836622
-0.00868465
-0.00911999
-0.00970179
-0.0104603
-0.0114247
-0.0126206
-0.0140673
-0.0157746
-0.0177402
-0.0199472
-0.022363
-0.0249396
-0.027615
-0.0303161
-0.0329623
-0.0354694
-0.0377541
-0.0397367
-0.0413444
-0.0425135
-0.0431906
-0.0433342
-0.0429146
-0.0419144
-0.0403297
-0.0381766
-0.0354793
-0.0322764
-0.0286199
-0.024574
-0.0202145
-0.0156268
-0.0109034
-0.00614134
-0.00143892
0.00310765
0.00740754
0.0113785
0.0149493
0.0180621
0.0206735
0.0227545
0.0242903
0.025279
0.0257294
0.0256582
0.02509
0.0240535
0.0225833
0.0207189
0.0185027
0.015981
0.0132047
0.0102289
0.00711305
0.00391967
0.000713213
-0.00244177
-0.00548272
-0.00835134
-0.0109959
-0.0133731
-0.01545
-0.017206
-0.0186332
-0.0197351
-0.020526
-0.02103
-0.0212785
-0.0213085
-0.0211594
-0.0208707
-0.0204797
-0.0200204
-0.0195219
-0.0190084
-0.0184994
-0.0180097
-0.0175503
-0.017129
-0.016751
-0.0164193
-0.0161348
-0.0158968
-0.0157032
-0.0155505
-0.0154339
-0.015348
-0.0152864
-0.0152427
-0.0152102
-0.0151827
-0.0151542
-0.0151196
-0.0150746
-0.0150158
-0.0149408
-0.0148481
-0.0147372
-0.0146082
-0.0144621
-0.0143002
-0.0141243
-0.0139365
-0.0137389
-0.0135338
-0.0133233
-0.0131094
-0.0128941
-0.0126791
-0.0124657
-0.0122552
-0.0120487
-0.011847
-0.0116505
-0.0114599
-0.0112753
-0.0110968
-0.0109246
-0.0107586
-0.0105985
-0.0104442
-0.0102955
-0.010152
-0.0100134
-0.00987941
-0.00974966
-0.0096238
-0.00950151
-0.00938243
-0.00926624
-0.00915261
-0.00904122
-0.00893179
-0.00882403
-0.00871766
-0.00861244
-0.00850814
-0.00840452
-0.00830139
-0.00819855
-0.00809584
-0.00799308
-0.00789014
-0.00778685
-0.00768311
-0.00757878
-0.00747373
-0.00736784
-0.007261
-0.00715304
-0.00704383
-0.00693317
-0.00682081
-0.00670645
-0.00658967
-0.0064699
-0.00634642
-0.00621832
-0.00608458
-0.00594423
-0.00579696
-0.00564347
-0.0054842
-0.00533008
-0.00661112
-0.00675677
-0.00691018
-0.00704018
-0.00715359
-0.00725787
-0.00735726
-0.00745564
-0.00755823
-0.00767253
-0.00780933
-0.00798355
-0.00821481
-0.00852763
-0.00895125
-0.00951886
-0.0102664
-0.0112308
-0.0124473
-0.0139465
-0.0157506
-0.0178702
-0.0203007
-0.0230204
-0.0259897
-0.0291521
-0.0324366
-0.0357618
-0.0390397
-0.0421804
-0.0450962
-0.0477043
-0.0499294
-0.051705
-0.0529745
-0.0536916
-0.0538209
-0.0533379
-0.0522305
-0.0505019
-0.0481679
-0.0452571
-0.0418118
-0.0378883
-0.033556
-0.028896
-0.0239993
-0.0189641
-0.0138931
-0.00889005
-0.00405576
0.000515085
0.00473751
0.00853915
0.0118623
0.014665
0.0169213
0.01862
0.0197629
0.0203622
0.0204375
0.0200139
0.0191204
0.0177909
0.0160625
0.0139745
0.0115707
0.00889971
0.00601576
0.00297828
-0.000148728
-0.00329808
-0.0064014
-0.00939146
-0.0122048
-0.0147843
-0.0170817
-0.0190589
-0.0206922
-0.021971
-0.0228984
-0.0234903
-0.0237733
-0.0237836
-0.0235639
-0.02316
-0.0226184
-0.021983
-0.0212933
-0.0205831
-0.0198796
-0.0192038
-0.0185711
-0.0179915
-0.0174714
-0.0170139
-0.0166196
-0.0162872
-0.0160138
-0.015795
-0.0156254
-0.0154984
-0.015407
-0.0153435
-0.0153
-0.015269
-0.0152433
-0.0152164
-0.0151825
-0.0151371
-0.0150767
-0.0149988
-0.0149021
-0.0147863
-0.0146518
-0.0144996
-0.0143315
-0.0141493
-0.0139555
-0.0137522
-0.0135419
-0.0133267
-0.0131088
-0.0128901
-0.0126723
-0.0124567
-0.0122445
-0.0120368
-0.0118343
-0.0116374
-0.0114467
-0.0112622
-0.0110841
-0.0109124
-0.010747
-0.0105876
-0.0104341
-0.0102861
-0.0101433
-0.0100055
-0.00987223
-0.00974318
-0.009618
-0.00949633
-0.00937784
-0.00926219
-0.00914906
-0.00903814
-0.00892913
-0.00882174
-0.00871572
-0.00861081
-0.00850678
-0.0084034
-0.00830049
-0.00819785
-0.0080953
-0.0079927
-0.00788989
-0.00778673
-0.0076831
-0.00757888
-0.00747395
-0.00736818
-0.00726146
-0.00715366
-0.00704463
-0.00693422
-0.00682222
-0.0067084
-0.00659245
-0.00647395
-0.00635232
-0.00622678
-0.00609633
-0.0059599
-0.00581699
-0.00566636
-0.00550804
-0.00536838
-0.00639404
-0.00658812
-0.00678925
-0.00695522
-0.007098
-0.00723102
-0.00736333
-0.0075036
-0.00766232
-0.00785302
-0.00809322
-0.00840539
-0.0088174
-0.00936251
-0.0100787
-0.0110071
-0.0121901
-0.0136682
-0.015476
-0.0176386
-0.020167
-0.0230549
-0.0262769
-0.0297876
-0.0335241
-0.0374086
-0.0413533
-0.0452651
-0.0490502
-0.0526181
-0.0558837
-0.0587695
-0.0612064
-0.0631338
-0.0645
-0.0652628
-0.06539
-0.0648592
-0.0636601
-0.0618002
-0.0592959
-0.0561771
-0.0524901
-0.0482955
-0.0436676
-0.038693
-0.0334685
-0.0280987
-0.0226924
-0.0173596
-0.0122066
-0.00733292
-0.00282688
0.00123715
0.00480117
0.00782464
0.0102843
0.0121726
0.0134953
0.0142683
0.0145136
0.0142577
0.0135291
0.01236
0.0107845
0.00883855
0.00656287
0.00400386
0.00121462
-0.00174495
-0.00480889
-0.00790665
-0.0109653
-0.0139122
-0.0166778
-0.0191989
-0.0214214
-0.0233019
-0.0248123
-0.0259372
-0.0266792
-0.0270552
-0.0270948
-0.0268389
-0.0263366
-0.0256415
-0.0248079
-0.0238878
-0.0229277
-0.021967
-0.0210372
-0.0201615
-0.0193558
-0.0186296
-0.0179875
-0.0174303
-0.016956
-0.0165605
-0.0162383
-0.0159825
-0.0157855
-0.0156388
-0.0155333
-0.01546
-0.0154095
-0.0153733
-0.0153431
-0.0153117
-0.015273
-0.0152221
-0.0151554
-0.0150705
-0.0149661
-0.0148421
-0.0146991
-0.0145385
-0.0143621
-0.0141721
-0.0139709
-0.013761
-0.0135447
-0.0133245
-0.0131023
-0.0128801
-0.0126595
-0.0124418
-0.0122282
-0.0120196
-0.0118165
-0.0116196
-0.0114291
-0.0112451
-0.0110678
-0.0108969
-0.0107323
-0.0105739
-0.0104214
-0.0102744
-0.0101327
-0.00999583
-0.0098635
-0.00973534
-0.00961099
-0.00949011
-0.00937235
-0.00925737
-0.00914485
-0.00903449
-0.00892599
-0.00881906
-0.00871345
-0.00860891
-0.0085052
-0.00840212
-0.00829946
-0.00819705
-0.00809471
-0.00799228
-0.00788963
-0.00778662
-0.00768313
-0.00757904
-0.00747423
-0.0073686
-0.00726203
-0.00715441
-0.00704561
-0.00693548
-0.0068239
-0.00671068
-0.0065956
-0.00647838
-0.00635853
-0.00623537
-0.00610788
-0.00597485
-0.00583552
-0.00568734
-0.00552936
-0.00539991
-0.00635518
-0.00659384
-0.00683949
-0.00704041
-0.00721481
-0.00738314
-0.00756051
-0.00776164
-0.0080037
-0.00830748
-0.00869843
-0.00920748
-0.00987118
-0.0107313
-0.0118331
-0.0132236
-0.0149473
-0.0170428
-0.0195379
-0.0224448
-0.0257572
-0.0294473
-0.0334666
-0.0377479
-0.0422088
-0.0467574
-0.0512973
-0.0557319
-0.0599687
-0.0639206
-0.0675082
-0.070659
-0.0733082
-0.0753982
-0.0768793
-0.0777102
-0.0778589
-0.0773032
-0.0760341
-0.0740602
-0.0713972
-0.0680783
-0.0641531
-0.0596862
-0.0547565
-0.0494561
-0.0438878
-0.0381629
-0.032397
-0.0267068
-0.0212051
-0.0159969
-0.011175
-0.0068165
-0.00298032
0.000293836
0.00298515
0.00508975
0.00661745
0.0075876
0.00802478
0.0079567
0.00741119
0.00641785
0.0050072
0.00321164
0.00106847
-0.00137813
-0.00407575
-0.00696355
-0.00997295
-0.0130293
-0.0160544
-0.0189696
-0.0216988
-0.0241722
-0.026329
-0.0281205
-0.0295126
-0.0304856
-0.0310393
-0.0311909
-0.0309725
-0.0304295
-0.0296176
-0.028599
-0.0274375
-0.0261943
-0.0249247
-0.0236753
-0.0224827
-0.0213733
-0.0203642
-0.0194643
-0.0186764
-0.0179988
-0.0174263
-0.0169518
-0.0165667
-0.0162614
-0.0160256
-0.0158486
-0.0157196
-0.0156275
-0.0155618
-0.0155127
-0.015471
-0.0154288
-0.0153795
-0.0153179
-0.0152404
-0.0151445
-0.0150291
-0.0148942
-0.0147406
-0.0145698
-0.0143839
-0.0141853
-0.0139763
-0.0137596
-0.0135375
-0.0133124
-0.0130864
-0.0128611
-0.0126383
-0.0124191
-0.0122047
-0.0119958
-0.0117929
-0.0115965
-0.0114068
-0.0112238
-0.0110476
-0.010878
-0.0107148
-0.0105577
-0.0104065
-0.0102609
-0.0101204
-0.00998475
-0.00985357
-0.00972649
-0.00960315
-0.00948319
-0.00936628
-0.00925209
-0.00914028
-0.00903056
-0.00892264
-0.00881623
-0.00871108
-0.00860695
-0.00850361
-0.00840085
-0.00829847
-0.0081963
-0.00809418
-0.00799194
-0.00788946
-0.0077866
-0.00768325
-0.00757929
-0.00747462
-0.00736914
-0.00726273
-0.0071553
-0.00704673
-0.00693692
-0.00682576
-0.00671314
-0.00659891
-0.00648286
-0.00636458
-0.00624343
-0.00611835
-0.00598799
-0.00585131
-0.00570516
-0.00554708
-0.00542352
-0.0065698
-0.00684513
-0.00712875
-0.00736218
-0.00757036
-0.00778137
-0.00801715
-0.00829946
-0.00865301
-0.00910668
-0.00969438
-0.0104556
-0.011435
-0.0126813
-0.014245
-0.0161745
-0.0185122
-0.021289
-0.0245201
-0.0282003
-0.0323026
-0.0367775
-0.041556
-0.0465537
-0.0516763
-0.056825
-0.0619016
-0.0668117
-0.0714667
-0.0757845
-0.0796896
-0.0831123
-0.0859893
-0.088263
-0.0898829
-0.0908067
-0.0910009
-0.0904424
-0.0891235
-0.0870519
-0.0842437
-0.0807352
-0.0765785
-0.0718418
-0.0666086
-0.060976
-0.0550531
-0.0489576
-0.0428126
-0.0367417
-0.0308651
-0.0252941
-0.0201268
-0.015444
-0.0113065
-0.00775376
-0.00480467
-0.00245978
-0.000705358
0.000481466
0.00112765
0.00126206
0.000911563
0.000102447
-0.0011386
-0.00278309
-0.00479699
-0.00713796
-0.00975374
-0.0125817
-0.0155498
-0.0185786
-0.0215839
-0.0244806
-0.0271858
-0.0296227
-0.0317242
-0.0334355
-0.0347163
-0.0355443
-0.035913
-0.0358393
-0.0353566
-0.0345143
-0.0333744
-0.0320077
-0.0304882
-0.0288881
-0.0272729
-0.0256982
-0.0242072
-0.0228306
-0.0215875
-0.0204865
-0.0195288
-0.0187095
-0.0180202
-0.0174503
-0.0169877
-0.0166196
-0.0163331
-0.0161149
-0.0159521
-0.0158321
-0.0157426
-0.0156728
-0.0156124
-0.0155531
-0.0154878
-0.0154108
-0.0153185
-0.0152085
-0.0150796
-0.014932
-0.0147666
-0.014585
-0.0143894
-0.0141822
-0.0139659
-0.013743
-0.013516
-0.013287
-0.013058
-0.0128308
-0.0126068
-0.0123872
-0.0121729
-0.0119645
-0.0117627
-0.0115676
-0.0113794
-0.0111981
-0.0110237
-0.0108559
-0.0106945
-0.0105392
-0.0103897
-0.0102457
-0.0101068
-0.00997261
-0.00984279
-0.00971697
-0.0095948
-0.00947591
-0.00935997
-0.00924665
-0.00913564
-0.00902663
-0.00891933
-0.00881349
-0.00870884
-0.00860514
-0.00850218
-0.00839975
-0.00829766
-0.00819574
-0.00809383
-0.00799178
-0.00788946
-0.00778675
-0.00768353
-0.0075797
-0.00747516
-0.00736981
-0.00726355
-0.0071563
-0.00704797
-0.00693846
-0.00682771
-0.00671564
-0.00660214
-0.00648706
-0.00637002
-0.00625039
-0.00612705
-0.00599854
-0.00586357
-0.00571906
-0.00556063
-0.00543919
-0.00710055
-0.00740108
-0.00771326
-0.00797549
-0.00821932
-0.00848029
-0.0087875
-0.00917014
-0.00966086
-0.0102968
-0.0111201
-0.0121781
-0.0135222
-0.0152058
-0.0172811
-0.0197942
-0.0227805
-0.0262592
-0.0302291
-0.0346661
-0.0395227
-0.044731
-0.0502065
-0.0558541
-0.0615739
-0.0672662
-0.072835
-0.0781898
-0.0832461
-0.087925
-0.0921525
-0.0958594
-0.0989808
-0.101457
-0.103236
-0.104273
-0.104532
-0.103989
-0.102638
-0.100484
-0.0975454
-0.0938599
-0.0894821
-0.0844831
-0.0789505
-0.0729862
-0.066705
-0.0602312
-0.053695
-0.0472277
-0.040957
-0.0350014
-0.0294652
-0.024434
-0.0199714
-0.0161176
-0.0128902
-0.0102869
-0.00829042
-0.00687436
-0.00600957
-0.00566651
-0.00581895
-0.00644454
-0.00752066
-0.00902263
-0.0109193
-0.0131696
-0.0157203
-0.0185062
-0.0214507
-0.0244685
-0.0274691
-0.0303605
-0.033053
-0.0354634
-0.0375182
-0.0391564
-0.0403314
-0.0410225
-0.0412126
-0.0409175
-0.0401716
-0.0390263
-0.0375492
-0.0358189
-0.0339201
-0.0319364
-0.0299452
-0.0280125
-0.0261902
-0.0245147
-0.0230078
-0.0216788
-0.0205271
-0.0195449
-0.0187202
-0.0180384
-0.0174835
-0.0170395
-0.0166902
-0.01642
-0.0162135
-0.0160563
-0.0159348
-0.0158368
-0.0157514
-0.0156693
-0.0155831
-0.0154871
-0.0153771
-0.0152508
-0.0151071
-0.014946
-0.0147687
-0.0145767
-0.0143721
-0.0141574
-0.013935
-0.0137074
-0.0134768
-0.0132454
-0.0130151
-0.0127874