/*--------------------------------*- C++ -*----------------------------------*\
  =========                 |
  \\      /  F ield         | OpenFOAM: The Open Source CFD Toolbox
   \\    /   O peration     | Website:  https://openfoam.org
    \\  /    A nd           | Version:  8
     \\/     M anipulation  |
\*---------------------------------------------------------------------------*/
FoamFile
{
    version     2.0;
    format      ascii;
    class       surfaceScalarField;
    location    "0.42";
    object      phi;
}
// * * * * * * * * * * * * * * * * * * * * * * * * * * * * * * * * * * * * * //

dimensions      [0 3 -1 0 0 0 0];

internalField   nonuniform List<scalar> 
24170
(
-2.42486e-12
2.42486e-12
1.12066e-11
-1.36315e-11
3.52976e-11
-2.4091e-11
6.62977e-11
-3.10001e-11
1.04368e-10
-3.80701e-11
1.52055e-10
-4.76874e-11
2.12696e-10
-6.06411e-11
2.89163e-10
-7.64669e-11
3.82901e-10
-9.37379e-11
4.93341e-10
-1.1044e-10
6.1783e-10
-1.24489e-10
7.5224e-10
-1.3441e-10
8.92341e-10
-1.401e-10
1.03556e-09
-1.43219e-10
1.18064e-09
-1.45085e-10
1.30798e-09
-1.27331e-10
1.34429e-09
-3.63186e-11
1.5284e-09
-1.84106e-10
9.9042e-13
1.43444e-12
4.58193e-11
-5.84603e-11
1.22711e-10
-1.00983e-10
2.21623e-10
-1.29911e-10
3.43462e-10
-1.5991e-10
4.95762e-10
-1.99987e-10
6.88214e-10
-2.53093e-10
9.28838e-10
-3.17091e-10
1.2211e-09
-3.86004e-10
1.56217e-09
-4.51503e-10
1.94253e-09
-5.04849e-10
2.34733e-09
-5.39214e-10
2.75883e-09
-5.51596e-10
3.15758e-09
-5.41975e-10
3.51326e-09
-5.00766e-10
3.73519e-09
-3.49257e-10
3.42421e-09
2.74657e-10
3.66494e-09
1.28767e-09
1.17756e-11
-1.03412e-11
9.55733e-11
-1.42258e-10
2.33805e-10
-2.39215e-10
4.11138e-10
-3.07244e-10
6.29616e-10
-3.78388e-10
9.01896e-10
-4.72267e-10
1.24391e-09
-5.95109e-10
1.66836e-09
-7.41543e-10
2.17984e-09
-8.97478e-10
2.77177e-09
-1.04344e-09
3.42564e-09
-1.15871e-09
4.11226e-09
-1.22584e-09
4.79379e-09
-1.23312e-09
5.42131e-09
-1.1695e-09
5.91379e-09
-9.9325e-10
6.08301e-09
-5.18478e-10
5.38948e-09
9.68187e-10
5.996e-09
3.05843e-09
2.97421e-11
-4.00832e-11
1.61232e-10
-2.73748e-10
3.70082e-10
-4.48065e-10
6.36684e-10
-5.73845e-10
9.64498e-10
-7.06203e-10
1.37128e-09
-8.79046e-10
1.87881e-09
-1.10265e-09
2.50376e-09
-1.36649e-09
3.25071e-09
-1.64443e-09
4.10784e-09
-1.90056e-09
5.04532e-09
-2.0962e-09
6.01608e-09
-2.1966e-09
6.95623e-09
-2.17328e-09
7.7786e-09
-1.99186e-09
8.34471e-09
-1.55937e-09
8.39446e-09
-5.68227e-10
7.42991e-09
1.93273e-09
8.3349e-09
5.09101e-09
5.4602e-11
-9.46852e-11
2.43176e-10
-4.62321e-10
5.32449e-10
-7.37339e-10
8.99173e-10
-9.4057e-10
1.34832e-09
-1.15535e-09
1.90244e-09
-1.43317e-09
2.58851e-09
-1.78871e-09
3.42614e-09
-2.20413e-09
4.41876e-09
-2.63704e-09
5.54778e-09
-3.02958e-09
6.7702e-09
-3.31862e-09
8.01835e-09
-3.44475e-09
9.19877e-09
-3.35369e-09
1.01838e-08
-2.97685e-09
1.07861e-08
-2.16168e-09
1.07177e-08
-4.99886e-10
9.59893e-09
3.05153e-09
1.05563e-08
7.37751e-09
8.5985e-11
-1.8067e-10
3.41298e-10
-7.17635e-10
7.21025e-10
-1.11707e-09
1.19832e-09
-1.41786e-09
1.77943e-09
-1.73647e-09
2.49107e-09
-2.1448e-09
3.36439e-09
-2.66203e-09
4.42087e-09
-3.26061e-09
5.66156e-09
-3.87773e-09
7.06006e-09
-4.42808e-09
8.55912e-09
-4.81768e-09
1.00695e-08
-4.95512e-09
1.14681e-08
-4.75234e-09
1.25913e-08
-4.09999e-09
1.32203e-08
-2.79065e-09
1.30778e-08
-3.57466e-10
1.19203e-08
4.20904e-09
1.25705e-08
9.90615e-09
1.23314e-10
-3.03984e-10
4.54906e-10
-1.04923e-09
9.34959e-10
-1.59712e-09
1.53236e-09
-2.01527e-09
2.25397e-09
-2.45807e-09
3.12957e-09
-3.0204e-09
4.19327e-09
-3.72572e-09
5.46715e-09
-4.53449e-09
6.94897e-09
-5.35955e-09
8.60413e-09
-6.08325e-09
1.03614e-08
-6.57495e-09
1.21113e-08
-6.70505e-09
1.37052e-08
-6.3462e-09
1.49528e-08
-5.34758e-09
1.56238e-08
-3.46171e-09
1.54778e-08
-2.11416e-10
1.43947e-08
5.29216e-09
1.43058e-08
1.26594e-08
1.65825e-10
-4.69809e-10
5.82704e-10
-1.46611e-09
1.17234e-09
-2.18676e-09
1.89795e-09
-2.74087e-09
2.76569e-09
-3.32582e-09
3.807e-09
-4.06171e-09
5.05735e-09
-4.97608e-09
6.53825e-09
-6.01538e-09
8.24372e-09
-7.06502e-09
1.01315e-08
-7.97101e-09
1.21183e-08
-8.56177e-09
1.40786e-08
-8.66532e-09
1.58452e-08
-8.11287e-09
1.72144e-08
-6.71675e-09
1.79622e-08
-4.20947e-09
1.78972e-08
-1.46468e-10
1.69967e-08
6.19268e-09
1.56975e-08
1.5605e-08
2.12599e-10
-6.82408e-10
7.22805e-10
-1.97631e-09
1.43014e-09
-2.89409e-09
2.28997e-09
-3.6007e-09
3.30591e-09
-4.34177e-09
4.50906e-09
-5.26486e-09
5.93454e-09
-6.40155e-09
7.60222e-09
-7.68307e-09
9.50254e-09
-8.96533e-09
1.15873e-08
-1.00558e-08
1.3765e-08
-1.07395e-08
1.59005e-08
-1.08008e-08
1.78182e-08
-1.00306e-08
1.93142e-08
-8.21275e-09
2.01847e-08
-5.07994e-09
2.02894e-08
-2.51191e-10
1.96721e-08
6.80996e-09
1.66814e-08
1.86882e-08
2.62569e-10
-9.44976e-10
8.72706e-10
-2.58645e-09
1.70407e-09
-3.72545e-09
2.70141e-09
-4.59804e-09
3.86332e-09
-5.50368e-09
5.21816e-09
-6.61969e-09
6.79885e-09
-7.98224e-09
8.62284e-09
-9.50707e-09
1.06778e-08
-1.10203e-08
1.29126e-08
-1.22905e-08
1.5233e-08
-1.306e-08
1.75024e-08
-1.30702e-08
1.95483e-08
-1.20765e-08
2.11794e-08
-9.84384e-09
2.22209e-08
-6.12144e-09
2.25786e-08
-6.08841e-10
2.23349e-08
7.05363e-09
1.71919e-08
2.18244e-08
3.1481e-10
-1.25979e-09
1.02919e-09
-3.30083e-09
1.98825e-09
-4.68451e-09
3.12287e-09
-5.73267e-09
4.42357e-09
-6.80438e-09
5.91324e-09
-8.10936e-09
7.62067e-09
-9.68968e-09
9.5604e-09
-1.14468e-08
1.17188e-08
-1.31787e-08
1.40458e-08
-1.46175e-08
1.64513e-08
-1.54654e-08
1.88066e-08
-1.54255e-08
2.09535e-08
-1.42234e-08
2.27242e-08
-1.16145e-08
2.39778e-08
-7.37506e-09
2.4658e-08
-1.2891e-09
2.48642e-08
6.84744e-09
1.71641e-08
2.4892e-08
3.08051e-10
-1.56784e-09
9.91885e-10
-3.98467e-09
1.90039e-09
-5.59301e-09
2.96123e-09
-6.7935e-09
4.15728e-09
-8.00044e-09
5.50151e-09
-9.45359e-09
7.0136e-09
-1.12018e-08
8.70338e-09
-1.31366e-08
1.05599e-08
-1.50352e-08
1.25451e-08
-1.66027e-08
1.45914e-08
-1.75117e-08
1.66038e-08
-1.74379e-08
1.84676e-08
-1.60872e-08
2.00654e-08
-1.32123e-08
2.13061e-08
-8.61574e-09
2.21656e-08
-2.1486e-09
2.27296e-08
6.28347e-09
1.66805e-08
2.32132e-08
3.96832e-10
-1.96467e-09
1.27181e-09
-4.85964e-09
2.42026e-09
-6.74147e-09
3.74306e-09
-8.1163e-09
5.20831e-09
-9.46569e-09
6.82118e-09
-1.10665e-08
8.59746e-09
-1.29781e-08
1.05456e-08
-1.50847e-08
1.26552e-08
-1.71448e-08
1.48912e-08
-1.88388e-08
1.71918e-08
-1.98123e-08
1.94704e-08
-1.97164e-08
2.16242e-08
-1.82411e-08
2.35519e-08
-1.51399e-08
2.51811e-08
-1.02449e-08
2.65049e-08
-3.47239e-09
2.76166e-08
5.17183e-09
1.55786e-08
2.87185e-08
5.02663e-10
-2.46733e-09
1.60576e-09
-5.96273e-09
3.03595e-09
-8.17165e-09
4.65687e-09
-9.73722e-09
6.41369e-09
-1.12225e-08
8.29671e-09
-1.29495e-08
1.03132e-08
-1.49945e-08
1.24688e-08
-1.72403e-08
1.4757e-08
-1.94331e-08
1.71538e-08
-2.12356e-08
1.96156e-08
-2.22742e-08
2.20816e-08
-2.21824e-08
2.44803e-08
-2.06398e-08
2.67446e-08
-1.74042e-08
2.88343e-08
-1.23346e-08
3.0764e-08
-5.40214e-09
3.26283e-08
3.30758e-09
1.36014e-08
3.46055e-08
6.1929e-10
-3.08662e-09
1.97088e-09
-7.31433e-09
3.70231e-09
-9.90308e-09
5.62875e-09
-1.16637e-08
7.66219e-09
-1.32559e-08
9.76879e-09
-1.50561e-08
1.19407e-08
-1.71664e-08
1.4179e-08
-1.94786e-08
1.64851e-08
-2.17392e-08
1.88567e-08
-2.36071e-08
2.12859e-08
-2.47034e-08
2.37596e-08
-2.46561e-08
2.62624e-08
-2.31426e-08
2.87847e-08
-1.99265e-08
3.13355e-08
-1.48854e-08
3.39594e-08
-8.02605e-09
3.67508e-08
5.16207e-10
1.04969e-08
3.98553e-08
7.24164e-10
-3.81079e-09
2.29348e-09
-8.88364e-09
4.27942e-09
-1.1889e-08
6.44361e-09
-1.38279e-08
8.65596e-09
-1.54683e-08
1.08485e-08
-1.72486e-08
1.29902e-08
-1.93082e-08
1.50746e-08
-2.15629e-08
1.7114e-08
-2.37786e-08
1.91385e-08
-2.56316e-08
2.11931e-08
-2.6758e-08
2.33357e-08
-2.67987e-08
2.56333e-08
-2.54402e-08
2.81598e-08
-2.2453e-08
3.09965e-08
-1.77222e-08
3.4234e-08
-1.12636e-08
3.79746e-08
-3.22432e-09
6.137e-09
4.23345e-08
7.61425e-10
-4.57221e-09
2.39444e-09
-1.05167e-08
4.43272e-09
-1.39273e-08
6.59994e-09
-1.59951e-08
8.72518e-09
-1.75935e-08
1.07006e-08
-1.9224e-08
1.24647e-08
-2.10723e-08
1.39975e-08
-2.30957e-08
1.53214e-08
-2.51025e-08
1.6502e-08
-2.68122e-08
1.76465e-08
-2.79025e-08
1.88977e-08
-2.80499e-08
2.04237e-08
-2.69662e-08
2.24051e-08
-2.44344e-08
2.50204e-08
-2.03374e-08
2.84332e-08
-1.46764e-08
3.27827e-08
-7.57382e-09
7.42009e-10
3.81777e-08
6.14854e-10
-5.18707e-09
1.90811e-09
-1.18099e-08
3.4869e-09
-1.55061e-08
5.09751e-09
-1.76057e-08
6.55546e-09
-1.90515e-08
7.72202e-09
-2.03906e-08
8.50408e-09
-2.18543e-08
8.86189e-09
-2.34535e-08
8.81803e-09
-2.50587e-08
8.46287e-09
-2.6457e-08
7.95441e-09
-2.73941e-08
7.51122e-09
-2.76067e-08
7.39814e-09
-2.68531e-08
7.90566e-09
-2.49419e-08
9.32504e-09
-2.17568e-08
1.19224e-08
-1.72738e-08
1.59156e-08
-1.1567e-08
-4.79653e-09
2.14541e-08
7.50796e-11
-5.26215e-09
1.99491e-10
-1.19343e-08
2.89592e-10
-1.55962e-08
2.45357e-10
-1.75615e-08
-5.91169e-11
-1.8747e-08
-7.54441e-10
-1.96952e-08
-1.94796e-09
-2.06608e-08
-3.69801e-09
-2.17035e-08
-5.99541e-09
-2.27613e-08
-8.75194e-09
-2.37005e-08
-1.17964e-08
-2.43497e-08
-1.48788e-08
-2.45243e-08
-1.76832e-08
-2.40487e-08
-1.98483e-08
-2.27768e-08
-2.09957e-08
-2.06094e-08
-2.07614e-08
-1.75081e-08
-1.88267e-08
-1.35018e-08
-8.68055e-09
-1.49427e-08
-5.22835e-10
-4.73931e-09
-1.63638e-09
-1.08208e-08
-3.06641e-09
-1.41662e-08
-4.70502e-09
-1.59228e-08
-6.5449e-09
-1.69071e-08
-8.62677e-09
-1.76134e-08
-1.10018e-08
-1.82858e-08
-1.37051e-08
-1.90002e-08
-1.67378e-08
-1.97286e-08
-2.00565e-08
-2.03818e-08
-2.35682e-08
-2.0838e-08
-2.71298e-08
-2.09626e-08
-3.05535e-08
-2.0625e-08
-3.36162e-08
-1.97141e-08
-3.60743e-08
-1.81512e-08
-3.76822e-08
-1.59002e-08
-3.82117e-08
-1.29723e-08
-9.4256e-09
-3.74666e-08
-8.38522e-10
-3.90079e-09
-2.60783e-09
-9.05147e-09
-4.84589e-09
-1.19281e-08
-7.33932e-09
-1.34294e-08
-1.00114e-08
-1.4235e-08
-1.28547e-08
-1.47701e-08
-1.58883e-08
-1.52522e-08
-1.91304e-08
-1.57581e-08
-2.25803e-08
-1.62786e-08
-2.62082e-08
-1.67539e-08
-2.99499e-08
-1.70964e-08
-3.37052e-08
-1.72072e-08
-3.73412e-08
-1.69891e-08
-4.06977e-08
-1.63577e-08
-4.35973e-08
-1.52516e-08
-4.58576e-08
-1.36398e-08
-4.73045e-08
-1.15254e-08
-8.94651e-09
-4.77836e-08
-9.53604e-10
-2.94718e-09
-2.96677e-09
-7.0383e-09
-5.51156e-09
-9.38331e-09
-8.33196e-09
-1.0609e-08
-1.13154e-08
-1.12516e-08
-1.44256e-08
-1.166e-08
-1.76609e-08
-1.20169e-08
-2.10273e-08
-1.23917e-08
-2.45215e-08
-1.27844e-08
-2.81208e-08
-1.31546e-08
-3.17779e-08
-1.34392e-08
-3.54196e-08
-1.35656e-08
-3.89479e-08
-1.34608e-08
-4.22446e-08
-1.30609e-08
-4.51787e-08
-1.23175e-08
-4.76147e-08
-1.12039e-08
-4.94219e-08
-9.71816e-09
-7.88472e-09
-5.04837e-08
-9.06835e-10
-2.04035e-09
-2.84265e-09
-5.10249e-09
-5.30801e-09
-6.91796e-09
-8.04845e-09
-7.86857e-09
-1.09404e-08
-8.35965e-09
-1.39349e-08
-8.66546e-09
-1.70204e-08
-8.93134e-09
-2.01975e-08
-9.21463e-09
-2.34628e-08
-9.51918e-09
-2.67995e-08
-9.81779e-09
-3.01728e-08
-1.0066e-08
-3.35273e-08
-1.02111e-08
-3.67886e-08
-1.01995e-08
-3.98664e-08
-9.98303e-09
-4.26599e-08
-9.52402e-09
-4.50643e-08
-8.79958e-09
-4.69782e-08
-7.80422e-09
-6.55252e-09
-4.83104e-08
-7.57475e-10
-1.28287e-09
-2.4167e-09
-3.44326e-09
-4.56201e-09
-4.77265e-09
-6.96437e-09
-5.46622e-09
-9.50452e-09
-5.8195e-09
-1.21322e-08
-6.03783e-09
-1.48334e-08
-6.23005e-09
-1.76082e-08
-6.43987e-09
-2.04554e-08
-6.67193e-09
-2.33648e-08
-6.90846e-09
-2.63117e-08
-7.11909e-09
-2.92555e-08
-7.26724e-09
-3.21401e-08
-7.31495e-09
-3.48959e-08
-7.22721e-09
-3.74442e-08
-6.9757e-09
-3.97022e-08
-6.5416e-09
-4.15887e-08
-5.91772e-09
-5.11149e-09
-4.30297e-08
-5.64943e-10
-7.17931e-10
-1.86241e-09
-2.14579e-09
-3.57914e-09
-3.05591e-09
-5.52059e-09
-3.52477e-09
-7.58069e-09
-3.75939e-09
-9.71443e-09
-3.90408e-09
-1.191e-08
-4.03453e-09
-1.41686e-08
-4.18118e-09
-1.64926e-08
-4.34794e-09
-1.88774e-08
-4.52373e-09
-2.13074e-08
-4.68902e-09
-2.37548e-08
-4.81989e-09
-2.61786e-08
-4.89109e-09
-2.85271e-08
-4.87875e-09
-3.074e-08
-4.76284e-09
-3.27525e-08
-4.52908e-09
-3.44999e-08
-4.1703e-09
-3.68935e-09
-3.5922e-08
-3.75044e-10
-3.42887e-10
-1.30894e-09
-1.21189e-09
-2.58389e-09
-1.78097e-09
-4.0413e-09
-2.06736e-09
-5.59329e-09
-2.2074e-09
-7.20358e-09
-2.29379e-09
-8.86398e-09
-2.37413e-09
-1.05777e-08
-2.46741e-09
-1.23494e-08
-2.57627e-09
-1.41788e-08
-2.69431e-09
-1.60579e-08
-2.80999e-09
-1.79687e-08
-2.90903e-09
-1.98837e-08
-2.97608e-09
-2.17661e-08
-2.99632e-09
-2.35721e-08
-2.95687e-09
-2.52532e-08
-2.84797e-09
-2.67597e-08
-2.66382e-09
-2.40476e-09
-2.80443e-08
-2.15851e-10
-1.27037e-10
-8.32537e-10
-5.95206e-10
-1.70808e-09
-9.05431e-10
-2.71918e-09
-1.05625e-09
-3.79865e-09
-1.12794e-09
-4.92021e-09
-1.17223e-09
-6.07935e-09
-1.215e-09
-7.28038e-09
-1.26637e-09
-8.52887e-09
-1.32779e-09
-9.82719e-09
-1.39598e-09
-1.11722e-08
-1.46499e-09
-1.25538e-08
-1.52738e-09
-1.39549e-08
-1.57503e-09
-1.53513e-08
-1.59992e-09
-1.67133e-08
-1.59489e-09
-1.8007e-08
-1.55422e-09
-1.91968e-08
-1.474e-09
-1.35364e-09
-2.02479e-08
-9.98264e-11
-2.72105e-11
-4.6504e-10
-2.29993e-10
-1.00775e-09
-3.6272e-10
-1.63964e-09
-4.24362e-10
-2.31489e-09
-4.52681e-10
-3.01687e-09
-4.70249e-10
-3.74387e-09
-4.88001e-10
-4.50014e-09
-5.1011e-10
-5.29078e-09
-5.37155e-10
-6.11895e-09
-5.67809e-10
-6.98428e-09
-5.99658e-10
-7.88202e-09
-6.29649e-10
-8.80264e-09
-6.54407e-10
-9.73203e-09
-6.70534e-10
-1.0652e-08
-6.74908e-10
-1.15413e-08
-6.64918e-10
-1.23768e-08
-6.38506e-10
-5.94875e-10
-1.31356e-08
-2.85785e-11
1.36798e-12
-2.08495e-10
-5.00757e-11
-4.88995e-10
-8.22204e-11
-8.17118e-10
-9.62379e-11
-1.16741e-09
-1.02393e-10
-1.53141e-09
-1.06247e-10
-1.90902e-09
-1.10393e-10
-2.30334e-09
-1.15786e-10
-2.71795e-09
-1.22549e-10
-3.15538e-09
-1.30375e-10
-3.61633e-09
-1.38709e-10
-4.09914e-09
-1.46844e-10
-4.59956e-09
-1.53986e-10
-5.11077e-09
-1.59316e-10
-5.62362e-09
-1.62062e-10
-6.12699e-09
-1.61552e-10
-6.60838e-09
-1.57115e-10
-1.48226e-10
-7.05503e-09
1.36798e-12
-4.87077e-11
-1.30928e-10
-2.27166e-10
-3.29559e-10
-4.35806e-10
-5.46199e-10
-6.61985e-10
-7.84534e-10
-9.14909e-10
-1.05362e-09
-1.20046e-09
-1.35445e-09
-1.51376e-09
-1.67583e-09
-1.83738e-09
-1.99449e-09
-2.14272e-09
5.5042e-11
-5.5042e-11
2.20178e-10
-1.65136e-10
4.72303e-10
-2.52125e-10
7.78654e-10
-3.06351e-10
1.10559e-09
-3.26934e-10
1.42074e-09
-3.15155e-10
1.69459e-09
-2.73852e-10
1.90172e-09
-2.07123e-10
2.02167e-09
-1.19954e-10
2.03929e-09
-1.76216e-11
1.94435e-09
9.49441e-11
1.73097e-09
2.13378e-10
1.3956e-09
3.35368e-10
9.35314e-10
4.60289e-10
3.45643e-10
5.8967e-10
-3.81325e-10
7.26968e-10
-1.25846e-09
8.77131e-10
-2.30426e-09
1.04581e-09
-3.54279e-09
1.23852e-09
-5.00276e-09
1.45997e-09
-6.71612e-09
1.71337e-09
-8.71622e-09
2.0001e-09
-1.10358e-08
2.3196e-09
-1.37052e-08
2.66939e-09
-1.67504e-08
3.04519e-09
-2.01914e-08
3.44098e-09
-2.40404e-08
3.84903e-09
-2.83003e-08
4.25987e-09
-3.29626e-08
4.66226e-09
-3.80058e-08
5.0433e-09
-4.33945e-08
5.38866e-09
-4.90775e-08
5.68301e-09
-5.49881e-08
5.9106e-09
-6.10441e-08
6.05597e-09
-6.71489e-08
6.10482e-09
-7.31937e-08
6.04476e-09
-7.90598e-08
5.86615e-09
-8.46226e-08
5.56274e-09
-8.97548e-08
5.13219e-09
-9.43312e-08
4.5764e-09
-9.82327e-08
3.9015e-09
-1.0135e-07
3.1176e-09
-1.03589e-07
2.23852e-09
-1.0487e-07
1.2814e-09
-1.05138e-07
2.67511e-10
-1.0435e-07
-7.88e-10
-1.02495e-07
-1.85491e-09
-9.95891e-08
-2.90568e-09
-9.56682e-08
-3.92088e-09
-9.07891e-08
-4.87908e-09
-8.50277e-08
-5.76142e-09
-7.84758e-08
-6.55187e-09
-7.12383e-08
-7.23751e-09
-6.34297e-08
-7.80865e-09
-5.51707e-08
-8.25896e-09
-4.65854e-08
-8.58534e-09
-3.77977e-08
-8.78772e-09
-2.8929e-08
-8.86868e-09
-2.00959e-08
-8.83304e-09
-1.14086e-08
-8.68735e-09
-2.9693e-09
-8.43929e-09
5.12797e-09
-8.09728e-09
1.27996e-08
-7.67164e-09
1.99709e-08
-7.17132e-09
2.65752e-08
-6.60426e-09
3.25561e-08
-5.98089e-09
3.78675e-08
-5.31138e-09
4.24731e-08
-4.60564e-09
4.63469e-08
-3.87379e-09
4.94733e-08
-3.12641e-09
5.18479e-08
-2.37464e-09
5.34781e-08
-1.63011e-09
5.43829e-08
-9.04853e-10
5.45942e-08
-2.11312e-10
5.41542e-08
4.40027e-10
5.31188e-08
1.03537e-09
5.15513e-08
1.56755e-09
4.95225e-08
2.02876e-09
4.7109e-08
2.4135e-09
4.43902e-08
2.71876e-09
4.14461e-08
2.94417e-09
3.83542e-08
3.09189e-09
3.51877e-08
3.16649e-09
3.20131e-08
3.17456e-09
2.88888e-08
3.12428e-09
2.58639e-08
3.02493e-09
2.29776e-08
2.88634e-09
2.02592e-08
2.7184e-09
1.77286e-08
2.53061e-09
1.53968e-08
2.33177e-09
1.32671e-08
2.12968e-09
1.13361e-08
1.93104e-09
9.59476e-09
1.74132e-09
8.02995e-09
1.56481e-09
6.6253e-09
1.40465e-09
5.36242e-09
1.26288e-09
4.22187e-09
1.14055e-09
3.1841e-09
1.03777e-09
2.23027e-09
9.53823e-10
1.34308e-09
8.87192e-10
5.07348e-10
8.35732e-10
-2.89457e-10
7.96805e-10
-1.05686e-09
7.67406e-10
-1.80121e-09
7.44349e-10
-2.52584e-09
7.24632e-10
-3.23151e-09
7.05664e-10
-3.91676e-09
6.85255e-10
-4.57854e-09
6.61774e-10
-5.21271e-09
6.3417e-10
-5.81465e-09
6.01943e-10
-6.37972e-09
5.65073e-10
-6.90366e-09
5.23932e-10
-7.38285e-09
4.79196e-10
-7.81459e-09
4.31741e-10
-8.19715e-09
3.8256e-10
-8.52984e-09
3.32684e-10
-8.81295e-09
2.83113e-10
-9.04772e-09
2.34769e-10
-9.23618e-09
1.88456e-10
-9.38101e-09
1.44836e-10
-9.48544e-09
1.04424e-10
-9.55301e-09
6.7577e-11
-9.58752e-09
3.45031e-11
-9.5931e-09
5.58187e-12
-9.57301e-09
-2.00845e-11
-9.53142e-09
-4.15927e-11
-9.47184e-09
-5.95817e-11
-9.39753e-09
-7.43108e-11
-9.31152e-09
-8.60127e-11
-9.21653e-09
-9.49824e-11
-9.11501e-09
-1.01524e-10
-9.00907e-09
-1.05938e-10
-8.90056e-09
-1.08514e-10
-8.79103e-09
-1.09526e-10
-8.6818e-09
-1.09227e-10
-8.57396e-09
-1.07846e-10
-8.46837e-09
-1.05592e-10
-8.36572e-09
-1.02647e-10
-8.26655e-09
-9.91738e-11
-8.17123e-09
-9.53121e-11
-8.08005e-09
-9.11827e-11
-7.99316e-09
-8.6888e-11
-7.91065e-09
-8.25144e-11
-7.83251e-09
-7.81335e-11
-7.75871e-09
-7.38047e-11
-7.68913e-09
-6.9576e-11
-7.62365e-09
-6.54863e-11
-7.56208e-09
-6.15656e-11
-7.50424e-09
-5.7837e-11
-7.44993e-09
-5.43164e-11
-7.39891e-09
-5.10144e-11
-7.35098e-09
-4.79369e-11
-7.30589e-09
-4.50853e-11
-7.26343e-09
-4.24574e-11
-7.22339e-09
-4.00479e-11
-7.18554e-09
-3.78491e-11
-7.14969e-09
-3.58512e-11
-7.11564e-09
-3.4042e-11
-7.08324e-09
-3.24085e-11
-7.0523e-09
-3.09358e-11
-7.02269e-09
-2.9608e-11
-6.99429e-09
-2.8406e-11
-6.96698e-09
-2.73057e-11
-6.94071e-09
-2.62704e-11
-6.91547e-09
-2.52397e-11
-6.89136e-09
-2.41088e-11
-6.86866e-09
-2.27028e-11
-6.8479e-09
-2.07569e-11
-6.82997e-09
-1.79296e-11
-6.81607e-09
-1.38972e-11
-6.80748e-09
-8.59563e-12
-6.80508e-09
-2.39577e-12
-6.80795e-09
2.86983e-12
-6.81193e-09
3.97598e-12
-6.80809e-09
-3.8349e-12
-6.7801e-09
-2.79921e-11
-6.7015e-09
-7.86029e-11
-6.53403e-09
-1.67468e-10
-6.20869e-09
-3.25337e-10
-7.94248e-10
-5.41445e-09
1.44301e-10
-1.99343e-10
4.87624e-10
-5.08459e-10
9.57023e-10
-7.21524e-10
1.48409e-09
-8.33419e-10
2.00002e-09
-8.42857e-10
2.43693e-09
-7.52069e-10
2.73021e-09
-5.67135e-10
2.82078e-09
-2.9769e-10
2.65693e-09
4.38958e-11
2.19539e-09
4.43918e-10
1.40121e-09
8.89119e-10
2.45932e-10
1.36866e-09
-1.29463e-09
1.87593e-09
-3.24408e-09
2.40974e-09
-5.62912e-09
2.9747e-09
-8.48285e-09
3.5807e-09
-1.18471e-08
4.24135e-09
-1.5773e-08
4.97173e-09
-2.03203e-08
5.78582e-09
-2.55543e-08
6.69394e-09
-3.15417e-08
7.70081e-09
-3.83458e-08
8.80424e-09
-4.60209e-08
9.99461e-09
-5.46063e-08
1.12549e-08
-6.41221e-08
1.25609e-08
-7.45631e-08
1.3882e-08
-8.58954e-08
1.51814e-08
-9.80526e-08
1.64171e-08
-1.10933e-07
1.75431e-08
-1.24401e-07
1.85107e-08
-1.38283e-07
1.92708e-08
-1.52376e-07
1.97764e-08
-1.66451e-07
1.9985e-08
-1.80256e-07
1.98611e-08
-1.9353e-07
1.93789e-08
-2.06008e-07
1.85231e-08
-2.17433e-07
1.72905e-08
-2.2756e-07
1.56901e-08
-2.3617e-07
1.37424e-08
-2.43072e-07
1.14785e-08
-2.48109e-07
8.9386e-09
-2.51162e-07
6.17016e-09
-2.52149e-07
3.22573e-09
-2.5103e-07
1.62228e-10
-2.47804e-07
-2.95855e-09
-2.42521e-07
-6.07081e-09
-2.3526e-07
-9.1164e-09
-2.26122e-07
-1.20434e-08
-2.15238e-07
-1.48049e-08
-2.02758e-07
-1.73591e-08
-1.88849e-07
-1.96704e-08
-1.73691e-07
-2.17093e-08
-1.57475e-07
-2.34536e-08
-1.40396e-07
-2.48875e-08
-1.22653e-07
-2.60025e-08
-1.04442e-07
-2.67961e-08
-8.59579e-08
-2.72719e-08
-6.7388e-08
-2.74386e-08
-4.89122e-08
-2.73088e-08
-3.07013e-08
-2.68983e-08
-1.29158e-08
-2.62248e-08
4.29383e-09
-2.53069e-08
2.07837e-08
-2.41615e-08
3.6421e-08
-2.28086e-08
5.10872e-08
-2.12705e-08
6.46734e-08
-1.9567e-08
7.70799e-08
-1.77179e-08
8.82175e-08
-1.57433e-08
9.80088e-08
-1.36651e-08
1.06389e-07
-1.15071e-08
1.13311e-07
-9.2959e-09
1.18741e-07
-7.06077e-09
1.2267e-07
-4.83374e-09
1.25108e-07
-2.64911e-09
1.2609e-07
-5.42103e-10
1.25676e-07
1.44957e-09
1.23953e-07
3.29099e-09
1.21029e-07
4.95262e-09
1.17035e-07
6.40768e-09
1.12117e-07
7.63646e-09
1.06435e-07
8.62645e-09
1.00153e-07
9.37312e-09
9.34397e-08
9.88016e-09
8.6455e-08
1.01592e-08
7.93505e-08
1.02288e-08
7.2262e-08
1.01135e-08
6.53068e-08
9.84153e-09
5.85813e-08
9.44384e-09
5.21602e-08
8.95179e-09
4.60961e-08
8.39578e-09
4.04219e-08
7.80397e-09
3.51516e-08
7.20129e-09
3.0284e-08
6.60889e-09
2.5805e-08
6.04383e-09
2.16906e-08
5.51908e-09
1.79098e-08
5.04371e-09
1.44272e-08
4.62311e-09
1.12057e-08
4.25928e-09
8.20833e-09
3.95118e-09
5.40047e-09
3.69505e-09
2.75135e-09
3.48486e-09
2.35335e-10
3.31281e-09
-2.16734e-09
3.17008e-09
-4.47006e-09
3.04707e-09
-6.67993e-09
2.9345e-09
-8.7987e-09
2.82443e-09
-1.08237e-08
2.71028e-09
-1.27492e-08
2.58725e-09
-1.45674e-08
2.45235e-09
-1.62698e-08
2.30436e-09
-1.78483e-08
2.14355e-09
-1.92958e-08
1.97141e-09
-2.06069e-08
1.79033e-09
-2.17785e-08
1.6033e-09
-2.28095e-08
1.4136e-09
-2.37014e-08
1.22455e-09
-2.44576e-08
1.03934e-09
-2.50836e-08
8.60821e-10
-2.55866e-08
6.91432e-10
-2.59749e-08
5.33132e-10
-2.62579e-08
3.87379e-10
-2.64454e-08
2.55132e-10
-2.65478e-08
1.36902e-10
-2.65751e-08
3.28416e-11
-2.65376e-08
-5.75419e-11
-2.64447e-08
-1.34531e-10
-2.63053e-08
-1.98927e-10
-2.6128e-08
-2.51702e-10
-2.59201e-08
-2.93848e-10
-2.56887e-08
-3.2642e-10
-2.54397e-08
-3.50486e-10
-2.51786e-08
-3.67099e-10
-2.49098e-08
-3.77261e-10
-2.46374e-08
-3.81918e-10
-2.43647e-08
-3.81942e-10
-2.40944e-08
-3.78125e-10
-2.38288e-08
-3.71184e-10
-2.35697e-08
-3.61753e-10
-2.33185e-08
-3.50391e-10
-2.30762e-08
-3.37586e-10
-2.28437e-08
-3.23761e-10
-2.26213e-08
-3.09275e-10
-2.24093e-08
-2.94434e-10
-2.2208e-08
-2.79496e-10
-2.20171e-08
-2.64674e-10
-2.18365e-08
-2.50143e-10
-2.1666e-08
-2.36045e-10
-2.15051e-08
-2.22491e-10
-2.13533e-08
-2.09568e-10
-2.12103e-08
-1.97336e-10
-2.10755e-08
-1.8584e-10
-2.09483e-08
-1.75104e-10
-2.08283e-08
-1.65138e-10
-2.07148e-08
-1.55941e-10
-2.06073e-08
-1.47498e-10
-2.05054e-08
-1.39786e-10
-2.04085e-08
-1.32775e-10
-2.03161e-08
-1.26428e-10
-2.02278e-08
-1.20703e-10
-2.01432e-08
-1.15554e-10
-2.00619e-08
-1.10927e-10
-1.99835e-08
-1.06762e-10
-1.99078e-08
-1.02978e-10
-1.98346e-08
-9.94531e-11
-1.97639e-08
-9.59852e-11
-1.96958e-08
-9.22292e-11
-1.96309e-08
-8.76198e-11
-1.95703e-08
-8.1324e-11
-1.95159e-08
-7.23144e-11
-1.94701e-08
-5.97232e-11
-1.94351e-08
-4.36276e-11
-1.94112e-08
-2.62969e-11
-1.93943e-08
-1.39974e-11
-1.93721e-08
-1.81749e-11
-1.93198e-08
-5.61535e-11
-1.91962e-08
-1.51569e-10
-1.894e-08
-3.34808e-10
-1.84644e-08
-6.43137e-10
-1.76358e-08
-1.15393e-09
-2.15122e-09
-1.62788e-08
1.58011e-10
-3.57354e-10
5.10018e-10
-8.60466e-10
9.51548e-10
-1.16305e-09
1.38728e-09
-1.26915e-09
1.72436e-09
-1.17994e-09
1.87157e-09
-8.99276e-10
1.74084e-09
-4.3641e-10
1.24942e-09
1.93735e-10
3.22053e-10
9.71261e-10
-1.10828e-09
1.87425e-09
-3.10049e-09
2.88134e-09
-5.70729e-09
3.97546e-09
-8.97808e-09
5.14673e-09
-1.29628e-08
6.39443e-09
-1.77155e-08
7.72739e-09
-2.32972e-08
9.16247e-09
-2.97772e-08
1.07213e-08
-3.72312e-08
1.24258e-08
-4.57382e-08
1.42928e-08
-5.53742e-08
1.63299e-08
-6.62043e-08
1.8531e-08
-7.82748e-08
2.08748e-08
-9.16042e-08
2.3324e-08
-1.06175e-07
2.5826e-08
-1.21928e-07
2.83141e-08
-1.38757e-07
3.07104e-08
-1.56504e-07
3.29283e-08
-1.74963e-07
3.48762e-08
-1.93882e-07
3.6462e-08
-2.12969e-07
3.75979e-08
-2.31903e-07
3.82051e-08
-2.50346e-07
3.8219e-08
-2.67953e-07
3.75925e-08
-2.84391e-07
3.6299e-08
-2.99346e-07
3.43334e-08
-3.12535e-07
3.17122e-08
-3.23716e-07
2.84717e-08
-3.32692e-07
2.46655e-08
-3.39311e-07
2.0362e-08
-3.43473e-07
1.56403e-08
-3.45122e-07
1.05874e-08
-3.44246e-07
5.29429e-09
-3.40875e-07
-1.4532e-10
-3.35084e-07
-5.62871e-09
-3.2698e-07
-1.10621e-08
-3.16686e-07
-1.63652e-08
-3.04338e-07
-2.14647e-08
-2.90089e-07
-2.62924e-08
-2.74107e-07
-3.0787e-08
-2.56571e-07
-3.48951e-08
-2.37669e-07
-3.85722e-08
-2.17596e-07
-4.17825e-08
-1.96549e-07
-4.44999e-08
-1.74729e-07
-4.67075e-08
-1.52334e-07
-4.83981e-08
-1.29557e-07
-4.9573e-08
-1.06587e-07
-5.02417e-08
-8.36055e-08
-5.042e-08
-6.0785e-08
-5.01293e-08
-3.82892e-08
-4.93942e-08
-1.62727e-08
-4.82412e-08
5.11693e-09
-4.66965e-08
2.57393e-08
-4.47838e-08
4.54628e-08
-4.25321e-08
6.4163e-08
-3.99708e-08
8.172e-08
-3.71241e-08
9.80183e-08
-3.40161e-08
1.12947e-07
-3.06723e-08
1.26403e-07
-2.71205e-08
1.38288e-07
-2.33928e-08
1.48519e-07
-1.95263e-08
1.57022e-07
-1.55641e-08
1.63744e-07
-1.15553e-08
1.6865e-07
-7.55529e-09
1.71732e-07
-3.62431e-09
1.73008e-07
1.73543e-10
1.72528e-07
3.77148e-09
1.70374e-07
7.10674e-09
1.66661e-07
1.01205e-08
1.61534e-07
1.27631e-08
1.55165e-07
1.49961e-08
1.47743e-07
1.67943e-08
1.39476e-07
1.81477e-08
1.30573e-07
1.90618e-08
1.21244e-07
1.95575e-08
1.11689e-07
1.96693e-08
1.02087e-07
1.94431e-08
9.25983e-08
1.89326e-08
8.33539e-08
1.81963e-08
7.44564e-08
1.72932e-08
6.59798e-08
1.62806e-08
5.79706e-08
1.52104e-08
5.04513e-08
1.41282e-08
4.34235e-08
1.30716e-08
3.68726e-08
1.207e-08
3.07716e-08
1.11447e-08
2.50855e-08
1.03092e-08
1.97746e-08
9.57015e-09
1.47981e-08
8.92767e-09
1.01168e-08
8.3764e-09
5.69528e-09
7.90634e-09
1.50407e-09
7.50403e-09
-2.47974e-09
7.15389e-09
-6.27171e-09
6.83904e-09
-9.87999e-09
6.54278e-09
-1.33064e-08
6.25086e-09
-1.65479e-08
5.95179e-09
-1.9598e-08
5.63737e-09
-2.24486e-08
5.30288e-09
-2.5091e-08
4.9468e-09
-2.75178e-08
4.57035e-09
-2.97234e-08
4.17697e-09
-3.17047e-08
3.77162e-09
-3.34616e-08
3.36024e-09
-3.49972e-08
2.94917e-09
-3.63173e-08
2.54471e-09
-3.74307e-08
2.1527e-09
-3.83482e-08
1.77832e-09
-3.90826e-08
1.42586e-09
-3.96481e-08
1.09865e-09
-4.00598e-08
7.99035e-10
-4.03331e-08
5.28432e-10
-4.04836e-08
2.87395e-10
-4.05265e-08
7.57215e-11
-4.04765e-08
-1.07456e-10
-4.03477e-08
-2.63409e-10
-4.01527e-08
-3.9385e-10
-3.99037e-08
-5.00751e-10
-3.96113e-08
-5.8623e-10
-3.92853e-08
-6.52466e-10
-3.89341e-08
-7.01636e-10
-3.85654e-08
-7.3586e-10
-3.81855e-08
-7.57151e-10
-3.78e-08
-7.67395e-10
-3.74136e-08
-7.68325e-10
-3.70302e-08
-7.61521e-10
-3.6653e-08
-7.48402e-10
-3.62845e-08
-7.30229e-10
-3.59268e-08
-7.08115e-10
-3.55813e-08
-6.83032e-10
-3.52493e-08
-6.55823e-10
-3.49313e-08
-6.27211e-10
-3.4628e-08
-5.97812e-10
-3.43393e-08
-5.68145e-10
-3.40653e-08
-5.38644e-10
-3.38058e-08
-5.09666e-10
-3.35604e-08
-4.81502e-10
-3.33285e-08
-4.54384e-10
-3.31096e-08
-4.28489e-10
-3.29029e-08
-4.03949e-10
-3.27079e-08
-3.80857e-10
-3.25238e-08
-3.5927e-10
-3.23497e-08
-3.39215e-10
-3.21849e-08
-3.20693e-10
-3.20287e-08
-3.03683e-10
-3.18804e-08
-2.88144e-10
-3.17391e-08
-2.74021e-10
-3.16043e-08
-2.61249e-10
-3.14753e-08
-2.49747e-10
-3.13514e-08
-2.39432e-10
-3.12321e-08
-2.30204e-10
-3.11169e-08
-2.2195e-10
-3.10054e-08
-2.14518e-10
-3.08972e-08
-2.07679e-10
-3.07921e-08
-2.01054e-10
-3.06903e-08
-1.93998e-10
-3.05925e-08
-1.8548e-10
-3.04998e-08
-1.74013e-10
-3.04142e-08
-1.57855e-10
-3.03382e-08
-1.35742e-10
-3.02734e-08
-1.08463e-10
-3.02183e-08
-8.1355e-11
-3.01649e-08
-6.73807e-11
-3.00936e-08
-8.95523e-11
-2.99679e-08
-1.81836e-10
-2.97315e-08
-3.87948e-10
-2.9306e-08
-7.60288e-10
-2.85868e-08
-1.36236e-09
-2.74654e-08
-2.27531e-09
-3.67879e-09
-2.59379e-08
1.05312e-10
-4.62666e-10
3.06059e-10
-1.06121e-09
4.92054e-10
-1.34905e-09
5.56045e-10
-1.33315e-09
3.90955e-10
-1.01485e-09
-1.09927e-10
-3.98394e-10
-1.05108e-09
5.04746e-10
-2.53218e-09
1.67484e-09
-4.64659e-09
3.08567e-09
-7.48023e-09
4.70788e-09
-1.11124e-08
6.51346e-09
-1.56174e-08
8.4805e-09
-2.10679e-08
1.05972e-08
-2.75376e-08
1.28641e-08
-3.51036e-08
1.52934e-08
-4.3847e-08
1.79059e-08
-5.38505e-08
2.07248e-08
-6.51933e-08
2.37686e-08
-7.79429e-08
2.70424e-08
-9.21452e-08
3.05322e-08
-1.07814e-07
3.41994e-08
-1.24919e-07
3.79799e-08
-1.4338e-07
4.17848e-08
-1.63057e-07
4.55038e-08
-1.83753e-07
4.901e-08
-2.0521e-07
5.21669e-08
-2.27117e-07
5.4835e-08
-2.49121e-07
5.68807e-08
-2.70843e-07
5.81837e-08
-2.91889e-07
5.86441e-08
-3.11873e-07
5.8189e-08
-3.3043e-07
5.67757e-08
-3.47231e-07
5.43934e-08
-3.61994e-07
5.10626e-08
-3.74493e-07
4.68323e-08
-3.84556e-07
4.17754e-08
-3.92069e-07
3.59841e-08
-3.96968e-07
2.95644e-08
-3.99237e-07
2.26312e-08
-3.989e-07
1.53038e-08
-3.96016e-07
7.70268e-09
-3.9067e-07
-5.18625e-11
-3.82978e-07
-7.8372e-09
-3.73062e-07
-1.55441e-08
-3.61044e-07
-2.308e-08
-3.47054e-07
-3.03556e-08
-3.31233e-07
-3.72856e-08
-3.13734e-07
-4.37912e-08
-2.94719e-07
-4.98021e-08
-2.74357e-07
-5.52569e-08
-2.52825e-07
-6.01043e-08
-2.30304e-07
-6.43038e-08
-2.06977e-07
-6.78266e-08
-1.83029e-07
-7.06559e-08
-1.58641e-07
-7.27865e-08
-1.33989e-07
-7.42247e-08
-1.09244e-07
-7.49866e-08
-8.45672e-08
-7.50967e-08
-6.01111e-08
-7.45854e-08
-3.60183e-08
-7.34869e-08
-1.24232e-08
-7.18364e-08
1.0546e-08
-6.96657e-08
3.27706e-08
-6.70084e-08
5.41379e-08
-6.38995e-08
7.45343e-08
-6.03672e-08
9.38471e-08
-5.64368e-08
1.11964e-07
-5.21327e-08
1.28771e-07
-4.74801e-08
1.44159e-07
-4.2508e-08
1.58017e-07
-3.7251e-08
1.70242e-07
-3.17512e-08
1.80738e-07
-2.60597e-08
1.8942e-07
-2.02377e-08
1.96221e-07
-1.43564e-08
2.01094e-07
-8.49667e-09
2.04014e-07
-2.74713e-09
2.04989e-07
2.79656e-09
2.04057e-07
8.03912e-09
2.01292e-07
1.28855e-08
1.96805e-07
1.72498e-08
1.90742e-07
2.10589e-08
1.8328e-07
2.42562e-08
1.74622e-07
2.68055e-08
1.6499e-07
2.86939e-08
1.54615e-07
2.99325e-08
1.43729e-07
3.05557e-08
1.32553e-07
3.06189e-08
1.21291e-07
3.01944e-08
1.10122e-07
2.93658e-08
9.91923e-08
2.82227e-08
8.86183e-08
2.68546e-08
7.84825e-08
2.53462e-08
6.88373e-08
2.37734e-08
5.97084e-08
2.22005e-08
5.10998e-08
2.06786e-08
4.29985e-08
1.9246e-08
3.53796e-08
1.79281e-08
2.82111e-08
1.67386e-08
2.1458e-08