/*--------------------------------*- C++ -*----------------------------------*\
  =========                 |
  \\      /  F ield         | OpenFOAM: The Open Source CFD Toolbox
   \\    /   O peration     | Website:  https://openfoam.org
    \\  /    A nd           | Version:  8
     \\/     M anipulation  |
\*---------------------------------------------------------------------------*/
FoamFile
{
    version     2.0;
    format      ascii;
    class       volVectorField;
    location    "0.42";
    object      U;
}
// * * * * * * * * * * * * * * * * * * * * * * * * * * * * * * * * * * * * * //

dimensions      [0 1 -1 0 0 0 0];

internalField   nonuniform List<vector> 
12225
(
(-1.29767e-05 1.6979e-06 0)
(2.99602e-06 -1.31101e-06 0)
(6.65514e-05 -2.55903e-06 0)
(0.000153425 -3.47402e-06 0)
(0.000260315 -4.40477e-06 0)
(0.000392178 -5.74185e-06 0)
(0.000559345 -7.64836e-06 0)
(0.000772352 -1.01491e-05 0)
(0.00103859 -1.31201e-05 0)
(0.00135977 -1.63258e-05 0)
(0.00173075 -1.94919e-05 0)
(0.0021404 -2.2457e-05 0)
(0.00257492 -2.54555e-05 0)
(0.00302332 -2.94839e-05 0)
(0.00348485 -3.60427e-05 0)
(0.00397589 -4.03914e-05 0)
(0.00453179 -9.08465e-05 0)
(0.00265355 0.00135845 0)
(-2.53576e-05 2.58722e-06 0)
(3.76551e-05 -1.92563e-05 0)
(0.000227613 -3.55797e-05 0)
(0.000486056 -4.77136e-05 0)
(0.000804795 -6.10939e-05 0)
(0.00119831 -7.96873e-05 0)
(0.00169498 -0.000105433 0)
(0.00232307 -0.000138266 0)
(0.00310121 -0.000176252 0)
(0.00403129 -0.000215927 0)
(0.0050952 -0.000253065 0)
(0.00625621 -0.000283979 0)
(0.00746555 -0.000307202 0)
(0.00867014 -0.000324453 0)
(0.00981451 -0.000335173 0)
(0.0107871 -0.000293092 0)
(0.0113307 6.99251e-05 0)
(0.00746593 0.00338032 0)
(-2.76149e-05 -8.61757e-07 0)
(9.81444e-05 -5.99552e-05 0)
(0.000418294 -0.000107051 0)
(0.000850713 -0.000143428 0)
(0.00138405 -0.000183996 0)
(0.00204193 -0.000239583 0)
(0.00286839 -0.000315423 0)
(0.00390635 -0.000410922 0)
(0.00518234 -0.000520064 0)
(0.00669528 -0.000632366 0)
(0.00841111 -0.000734842 0)
(0.0102637 -0.000814981 0)
(0.0121614 -0.000863551 0)
(0.0139905 -0.000872906 0)
(0.0156007 -0.000814018 0)
(0.016688 -0.000529106 0)
(0.0166739 0.000684407 0)
(0.0119314 0.00607734 0)
(-2.25436e-05 -1.31012e-05 0)
(0.000179668 -0.000129745 0)
(0.000633628 -0.000224981 0)
(0.00124095 -0.000300772 0)
(0.00198854 -0.000385848 0)
(0.00290836 -0.000501211 0)
(0.00405735 -0.000656807 0)
(0.00548958 -0.000850772 0)
(0.00723601 -0.00107023 0)
(0.00928972 -0.00129316 0)
(0.0115983 -0.00149192 0)
(0.0140633 -0.00163803 0)
(0.0165447 -0.00170514 0)
(0.0188581 -0.00166087 0)
(0.0207455 -0.00141808 0)
(0.0217412 -0.000660372 0)
(0.0211156 0.00171968 0)
(0.0162064 0.00907885 0)
(-1.24347e-05 -3.89529e-05 0)
(0.000277229 -0.000234227 0)
(0.000867785 -0.000395072 0)
(0.00164907 -0.00052634 0)
(0.00260701 -0.000674383 0)
(0.00378055 -0.000873339 0)
(0.00523636 -0.00113892 0)
(0.00703602 -0.0014669 0)
(0.00921159 -0.00183445 0)
(0.0117479 -0.00220305 0)
(0.014573 -0.00252382 0)
(0.0175556 -0.00274384 0)
(0.0205065 -0.00280807 0)
(0.0231714 -0.00264239 0)
(0.0251992 -0.00207967 0)
(0.0260357 -0.0006428 0)
(0.0249695 0.00302124 0)
(0.0203321 0.0120151 0)
(8.84873e-07 -8.27506e-05 0)
(0.000385773 -0.000379521 0)
(0.00111421 -0.000623794 0)
(0.00206625 -0.000827303 0)
(0.00322658 -0.00105748 0)
(0.0046393 -0.00136418 0)
(0.00637729 -0.00176956 0)
(0.00850595 -0.00226568 0)
(0.0110555 -0.00281641 0)
(0.0140013 -0.00336161 0)
(0.0172521 -0.00382423 0)
(0.0206463 -0.00411784 0)
(0.0239511 -0.00414697 0)
(0.0268544 -0.00378193 0)
(0.0289433 -0.00276841 0)
(0.0296513 -0.000503716 0)
(0.0283914 0.00443588 0)
(0.0242916 0.0147177 0)
(1.59279e-05 -0.000148444 0)
(0.000500256 -0.000572012 0)
(0.00136572 -0.000918032 0)
(0.00248262 -0.00121088 0)
(0.0038331 -0.00154238 0)
(0.00546388 -0.00198033 0)
(0.00745038 -0.0025537 0)
(0.00985831 -0.00324931 0)
(0.0127139 -0.00401435 0)
(0.0159825 -0.00476204 0)
(0.0195567 -0.00538044 0)
(0.0232505 -0.00574109 0)
(0.0267983 -0.00569821 0)
(0.0298511 -0.00505892 0)
(0.0319727 -0.0034894 0)
(0.032642 -0.000314553 0)
(0.0314372 0.00582416 0)
(0.0280362 0.0171019 0)
(3.15146e-05 -0.000239549 0)
(0.000615859 -0.000817894 0)
(0.00161488 -0.00128447 0)
(0.00288774 -0.0016835 0)
(0.00441166 -0.00213452 0)
(0.00623293 -0.0027252 0)
(0.00842577 -0.00349138 0)
(0.011053 -0.00441312 0)
(0.0141353 -0.00541789 0)
(0.0176298 -0.00638782 0)
(0.0214173 -0.00717029 0)
(0.0252969 -0.00758803 0)
(0.0289858 -0.00743864 0)
(0.0321232 -0.00646555 0)
(0.0342847 -0.00427346 0)
(0.0350295 -0.000169746 0)
(0.0340944 0.00705267 0)
(0.0314898 0.019091 0)
(4.67485e-05 -0.000359042 0)
(0.000728175 -0.00112286 0)
(0.00185426 -0.00172916 0)
(0.0032709 -0.00225032 0)
(0.0049472 -0.0028369 0)
(0.0069255 -0.00359806 0)
(0.00927511 -0.00457656 0)
(0.0120533 -0.00574435 0)
(0.0152748 -0.0070068 0)
(0.0188912 -0.0082117 0)
(0.0227784 -0.00916176 0)
(0.0267322 -0.0096268 0)
(0.0304707 -0.0093459 0)
(0.0336456 -0.00800447 0)
(0.0358727 -0.00516839 0)
(0.0368037 -0.000173129 0)
(0.0363028 0.00799434 0)
(0.0345513 0.0206047 0)
(6.09549e-05 -0.00050919 0)
(0.000833288 -0.00149169 0)
(0.00207664 -0.00225707 0)
(0.00362139 -0.00291467 0)
(0.00542488 -0.00364942 0)
(0.0075217 -0.00459343 0)
(0.00997279 -0.00579643 0)
(0.0128278 -0.00722146 0)
(0.0160961 -0.00875057 0)
(0.0197275 -0.0101957 0)
(0.0236011 -0.0113132 0)
(0.0275224 -0.0118196 0)
(0.031228 -0.0113975 0)
(0.0344035 -0.00968447 0)
(0.0367227 -0.00622943 0)
(0.037927 -0.000427134 0)
(0.0379698 0.0085322 0)
(0.0370976 0.0215597 0)
(7.36691e-05 -0.00069193 0)
(0.000927699 -0.00192814 0)
(0.00227485 -0.00287188 0)
(0.00392827 -0.0036779 0)
(0.00582989 -0.00456878 0)
(0.00800275 -0.00570093 0)
(0.0104964 -0.00713136 0)
(0.0133514 -0.00881432 0)
(0.016573 -0.0106088 0)
(0.0201138 -0.0122914 0)
(0.0238646 -0.013574 0)
(0.0276529 -0.014122 0)
(0.0312494 -0.0135685 0)
(0.0343892 -0.0115142 0)
(0.0368132 -0.00750908 0)
(0.0383418 -0.00102283 0)
(0.038983 0.00856397 0)
(0.0389878 0.0218717 0)
(8.38106e-05 -0.000890458 0)
(0.00100136 -0.00239162 0)
(0.00242726 -0.0035162 0)
(0.00415855 -0.00446651 0)
(0.00612003 -0.00550252 0)
(0.00832101 -0.00680425 0)
(0.0107983 -0.00843614 0)
(0.0135834 -0.0103454 0)
(0.0166792 -0.0123718 0)
(0.020045 -0.0142625 0)
(0.0235893 -0.0156924 0)
(0.0271693 -0.0162862 0)
(0.0305978 -0.0156386 0)
(0.0336642 -0.0133273 0)
(0.0361726 -0.00891438 0)
(0.0380034 -0.00194111 0)
(0.039194 0.00806181 0)
(0.0399726 0.0215057 0)
(9.30681e-05 -0.00111351 0)
(0.00106117 -0.00290481 0)
(0.00254705 -0.00422191 0)
(0.00433346 -0.00531946 0)
(0.00632584 -0.00649635 0)
(0.0085177 -0.00795706 0)
(0.0109317 -0.00977438 0)
(0.0135902 -0.0118904 0)
(0.0164946 -0.0141285 0)
(0.019614 -0.0162114 0)
(0.0228794 -0.0177827 0)
(0.0261833 -0.0184335 0)
(0.029387 -0.0177285 0)
(0.032338 -0.0152306 0)
(0.0349012 -0.0105182 0)
(0.0370071 -0.00319905 0)
(0.0387049 0.00707004 0)
(0.0401942 0.0205367 0)
(0.000102138 -0.00139881 0)
(0.00110788 -0.00355776 0)
(0.00263282 -0.00510912 0)
(0.00444722 -0.00637594 0)
(0.0064332 -0.00770343 0)
(0.00856433 -0.00932477 0)
(0.0108461 -0.0113241 0)
(0.0132898 -0.0136411 0)
(0.015897 -0.0160863 0)
(0.0186504 -0.0183618 0)
(0.0215105 -0.0200857 0)
(0.0244154 -0.0208213 0)
(0.0272854 -0.0201105 0)
(0.0300349 -0.0175079 0)
(0.0325946 -0.0126125 0)
(0.0349418 -0.00509525 0)
(0.0371316 0.00527724 0)
(0.0393297 0.0186174 0)
(0.000109039 -0.0017564 0)
(0.00112492 -0.00437278 0)
(0.00264632 -0.00620316 0)
(0.00443639 -0.00765622 0)
(0.00635344 -0.00913128 0)
(0.00834786 -0.0108946 0)
(0.0104054 -0.0130459 0)
(0.0125253 -0.0155281 0)
(0.0147096 -0.0181465 0)
(0.016958 -0.0205927 0)
(0.0192657 -0.0224708 0)
(0.0216225 -0.0233295 0)
(0.0240143 -0.0226991 0)
(0.026428 -0.0201341 0)
(0.0288606 -0.0152548 0)
(0.0313346 -0.00778275 0)
(0.0339119 0.00243224 0)
(0.0367263 0.0154024 0)
(0.000110331 -0.00218827 0)
(0.00108346 -0.00535233 0)
(0.00252209 -0.00750259 0)
(0.00419406 -0.00914713 0)
(0.00594019 -0.0107459 0)
(0.00768792 -0.0126017 0)
(0.00940241 -0.0148357 0)
(0.0110699 -0.0174028 0)
(0.0126926 -0.0201163 0)
(0.0142869 -0.0226744 0)
(0.0158824 -0.024687 0)
(0.0175206 -0.0257079 0)
(0.019252 -0.0252735 0)
(0.0211338 -0.0229485 0)
(0.0232277 -0.0183717 0)
(0.0256017 -0.0112972 0)
(0.0283328 -0.00162204 0)
(0.0315309 0.0106088 0)
(0.000100471 -0.00267357 0)
(0.000937012 -0.00644641 0)
(0.00215592 -0.00893671 0)
(0.00355174 -0.0107563 0)
(0.00496542 -0.0124265 0)
(0.00630835 -0.0142874 0)
(0.0075277 -0.0164866 0)
(0.00859688 -0.0190029 0)
(0.00951558 -0.0216755 0)
(0.0103115 -0.0242323 0)
(0.0110406 -0.0263158 0)
(0.011785 -0.0275127 0)
(0.012648 -0.0273894 0)
(0.0137455 -0.0255352 0)
(0.0151968 -0.0216077 0)
(0.0171151 -0.0153743 0)
(0.019604 -0.00674134 0)
(0.0227729 0.00423746 0)
(7.11887e-05 -0.00313852 0)
(0.000620633 -0.00748657 0)
(0.00140459 -0.0102814 0)
(0.0022799 -0.0122227 0)
(0.00311938 -0.0138796 0)
(0.00383528 -0.0156219 0)
(0.00436533 -0.017625 0)
(0.0046726 -0.0199013 0)
(0.00475077 -0.0223346 0)
(0.00462864 -0.0247076 0)
(0.004372 -0.0267255 0)
(0.00408206 -0.0280399 0)
(0.00388987 -0.0282779 0)
(0.00394672 -0.0270772 0)
(0.00441087 -0.0241253 0)
(0.00543391 -0.0191967 0)
(0.00715329 -0.0121818 0)
(0.009695 -0.00310044 0)
(9.85848e-06 -0.00340687 0)
(6.1465e-05 -0.00807472 0)
(0.000115116 -0.0110131 0)
(0.000138611 -0.012956 0)
(8.01352e-05 -0.0144802 0)
(-0.000120433 -0.0159605 0)
(-0.000518393 -0.0175895 0)
(-0.00115284 -0.0194148 0)
(-0.00203692 -0.0213746 0)
(-0.0031508 -0.0233232 0)
(-0.00443834 -0.0250513 0)
(-0.00580711 -0.0263027 0)
(-0.0071318 -0.0267954 0)
(-0.00826193 -0.0262461 0)
(-0.00903326 -0.0243994 0)
(-0.00928105 -0.021055 0)
(-0.00884615 -0.0160929 0)
(-0.00758566 -0.00948709 0)
(-6.53375e-05 -0.00322341 0)
(-0.000585204 -0.00764417 0)
(-0.0013527 -0.0104104 0)
(-0.00227199 -0.0121903 0)
(-0.00330171 -0.0135053 0)
(-0.00445783 -0.0146979 0)
(-0.00577365 -0.015953 0)
(-0.0072786 -0.0173338 0)
(-0.00898588 -0.0188145 0)
(-0.0108844 -0.0203029 0)
(-0.0129342 -0.0216571 0)
(-0.0150649 -0.0226988 0)
(-0.017177 -0.0232276 0)
(-0.0191462 -0.0230384 0)
(-0.0208318 -0.0219406 0)
(-0.0220865 -0.0197782 0)
(-0.0227597 -0.0164466 0)
(-0.022711 -0.0119059 0)
(-0.000117926 -0.0027733 0)
(-0.00107566 -0.00664447 0)
(-0.00247145 -0.00908399 0)
(-0.00411085 -0.0106373 0)
(-0.00588111 -0.0117463 0)
(-0.0077616 -0.0127088 0)
(-0.00976366 -0.0136909 0)
(-0.0119043 -0.0147576 0)
(-0.0141918 -0.0159009 0)
(-0.0166175 -0.0170598 0)
(-0.0191499 -0.0181339 0)
(-0.0217329 -0.0189939 0)
(-0.024286 -0.0194929 0)
(-0.0267078 -0.0194791 0)
(-0.0288815 -0.0188095 0)
(-0.0306832 -0.0173645 0)
(-0.0319823 -0.0150596 0)
(-0.0326566 -0.0118567 0)
(-0.000150204 -0.0021853 0)
(-0.00140221 -0.00534829 0)
(-0.0032304 -0.00737767 0)
(-0.00537073 -0.00866623 0)
(-0.00766147 -0.00956689 0)
(-0.0100542 -0.0103273 0)
(-0.0125421 -0.0110893 0)
(-0.0151312 -0.0119126 0)
(-0.0178252 -0.0127989 0)
(-0.0206156 -0.0137078 0)
(-0.0234757 -0.0145682 0)
(-0.0263583 -0.0152862 0)
(-0.0291956 -0.0157537 0)
(-0.0319017 -0.015858 0)
(-0.0343777 -0.0154917 0)
(-0.0365183 -0.0145632 0)
(-0.0382118 -0.0130057 0)
(-0.0393532 -0.0107859 0)
(-0.000156992 -0.00157936 0)
(-0.00153166 -0.00400734 0)
(-0.00356408 -0.00560722 0)
(-0.00595257 -0.00662188 0)
(-0.00850915 -0.0073204 0)
(-0.0111673 -0.00790083 0)
(-0.0139078 -0.00847864 0)
(-0.0167302 -0.00910515 0)
(-0.019636 -0.00978641 0)
(-0.0226177 -0.0104964 0)
(-0.0256531 -0.0111853 0)
(-0.0287016 -0.011786 0)
(-0.0317044 -0.0122201 0)
(-0.0345862 -0.0124043 0)
(-0.0372599 -0.0122582 0)
(-0.0396321 -0.0117116 0)
(-0.0416044 -0.0107113 0)
(-0.043083 -0.00922852 0)
(-0.000139589 -0.00104108 0)
(-0.00147507 -0.00279674 0)
(-0.00349874 -0.00399136 0)
(-0.00589802 -0.00474558 0)
(-0.00847682 -0.00525741 0)
(-0.0111589 -0.0056789 0)
(-0.0139188 -0.00609945 0)
(-0.0167536 -0.00656005 0)
(-0.0196657 -0.00706807 0)
(-0.0226508 -0.00760738 0)
(-0.0256919 -0.00814457 0)
(-0.0287555 -0.00863331 0)
(-0.0317911 -0.00901838 0)
(-0.034733 -0.00924032 0)
(-0.0375034 -0.00924046 0)
(-0.0400182 -0.00896609 0)
(-0.0421881 -0.00837547 0)
(-0.0439271 -0.00744456 0)
(-0.000104181 -0.000616759 0)
(-0.00127635 -0.00180944 0)
(-0.0031249 -0.00264832 0)
(-0.00534459 -0.0031719 0)
(-0.00774422 -0.00352146 0)
(-0.0102451 -0.00380785 0)
(-0.0128205 -0.00409602 0)
(-0.0154686 -0.00441623 0)
(-0.0181942 -0.00477524 0)
(-0.0209976 -0.00516366 0)
(-0.0238679 -0.0055603 0)
(-0.0267797 -0.00593492 0)
(-0.0296917 -0.0062508 0)
(-0.0325484 -0.0064676 0)
(-0.0352822 -0.00654466 0)
(-0.0378183 -0.00644433 0)
(-0.0400766 -0.00613539 0)
(-0.0419787 -0.00559866 0)
(-5.94195e-05 -0.000318263 0)
(-0.000994117 -0.00107078 0)
(-0.0025583 -0.00161544 0)
(-0.00446571 -0.0019485 0)
(-0.00653982 -0.00216661 0)
(-0.00870607 -0.00234485 0)
(-0.0109405 -0.00252653 0)
(-0.0132438 -0.00273193 0)
(-0.015624 -0.00296618 0)
(-0.0180855 -0.00322429 0)
(-0.0206235 -0.00349384 0)
(-0.0232207 -0.0037566 0)
(-0.0258461 -0.00399 0)
(-0.0284553 -0.00416873 0)
(-0.0309925 -0.00426674 0)
(-0.0333942 -0.00425915 0)
(-0.0355913 -0.00412439 0)
(-0.037515 -0.00384844 0)
(-1.47513e-05 -0.000133604 0)
(-0.000686424 -0.000562237 0)
(-0.00190892 -0.000878136 0)
(-0.00342463 -0.00106551 0)
(-0.00508055 -0.00118553 0)
(-0.00681235 -0.00128358 0)
(-0.00860145 -0.00138521 0)
(-0.0104513 -0.00150235 0)
(-0.0123718 -0.00163826 0)
(-0.0143704 -0.00179059 0)
(-0.0164473 -0.00195284 0)
(-0.0185925 -0.00211526 0)
(-0.0207846 -0.00226547 0)
(-0.0229911 -0.00238933 0)
(-0.0251692 -0.00247197 0)
(-0.0272686 -0.00249877 0)
(-0.0292333 -0.00245649 0)
(-0.0310071 -0.00233604 0)
(2.03633e-05 -3.785e-05 0)
(-0.000401829 -0.00024462 0)
(-0.00126401 -0.000397076 0)
(-0.00235018 -0.000483788 0)
(-0.00354 -0.000537934 0)
(-0.00478449 -0.000582258 0)
(-0.00607158 -0.000629187 0)
(-0.00740633 -0.000684443 0)
(-0.00879877 -0.00074969 0)
(-0.0102573 -0.000824011 0)
(-0.0117849 -0.000904605 0)
(-0.0133774 -0.000987131 0)
(-0.0150219 -0.00106597 0)
(-0.0166971 -0.00113459 0)
(-0.0183736 -0.00118592 0)
(-0.0200156 -0.00121288 0)
(-0.0215817 -0.00120862 0)
(-0.0230305 -0.00116792 0)
(3.64868e-05 -1.11472e-06 0)
(-0.000175962 -7.39335e-05 0)
(-0.000683199 -0.000125882 0)
(-0.0013308 -0.000153654 0)
(-0.00204032 -0.000170431 0)
(-0.00278154 -0.000184254 0)
(-0.0035485 -0.000199344 0)
(-0.00434607 -0.000217602 0)
(-0.00518212 -0.000239607 0)
(-0.00606353 -0.000265119 0)
(-0.006994 -0.000293298 0)
(-0.00797272 -0.000322803 0)
(-0.00899369 -0.000351851 0)
(-0.0100454 -0.000378316 0)
(-0.0111112 -0.00039986 0)
(-0.01217 -0.000414049 0)
(-0.0131964 -0.000418272 0)
(-0.0141645 -0.000409835 0)
(2.4507e-05 4.39321e-06 0)
(-3.11379e-05 -4.95613e-06 0)
(-0.000200433 -9.28517e-06 0)
(-0.000418787 -1.13009e-05 0)
(-0.000657411 -1.24311e-05 0)
(-0.000906036 -1.33993e-05 0)
(-0.0011633 -1.45654e-05 0)
(-0.00143165 -1.60836e-05 0)
(-0.00171451 -1.80084e-05 0)
(-0.00201495 -2.03344e-05 0)
(-0.00233497 -2.30107e-05 0)
(-0.00267501 -2.5946e-05 0)
(-0.00303368 -2.90073e-05 0)
(-0.00340765 -3.20259e-05 0)
(-0.00379166 -3.48038e-05 0)
(-0.00417877 -3.71483e-05 0)
(-0.00456005 -3.87438e-05 0)
(-0.00492571 -3.88491e-05 0)
(9.82174e-06 -2.06772e-05 -1.05921e-22)
(0.000108007 -6.99355e-05 1.34697e-22)
(0.000294304 -0.000111749 0)
(0.000547918 -0.000140164 0)
(0.000836157 -0.000155175 0)
(0.00112808 -0.000158244 -1.35995e-22)
(0.00139591 -0.000151552 0)
(0.00161509 -0.000137693 0)
(0.00176505 -0.000119399 0)
(0.00182985 -9.92781e-05 0)
(0.00179817 -7.95694e-05 1.45239e-22)
(0.00166296 -6.18705e-05 0)
(0.00142022 -4.70626e-05 0)
(0.0010673 -3.51528e-05 0)
(0.000601129 -2.52786e-05 0)
(1.63291e-05 -1.5843e-05 1.62737e-22)
(-0.000696349 -4.73187e-06 0)
(-0.00155104 1.04068e-05 0)
(-0.0025671 3.18993e-05 0)
(-0.00376861 6.17946e-05 0)
(-0.00518335 0.000101715 0)
(-0.00684126 0.00015282 0)
(-0.00877276 0.000215856 0)
(-0.0110069 0.000291242 2.13288e-22)
(-0.0135699 0.000379145 -2.21688e-22)
(-0.0164832 0.0004795 2.30249e-22)
(-0.0197622 0.000591952 2.38774e-22)
(-0.0234146 0.00071574 0)
(-0.0274388 0.000849554 0)
(-0.0318223 0.000991379 -2.61468e-22)
(-0.0365402 0.00113837 -2.66941e-22)
(-0.0415542 0.00128677 0)
(-0.0468116 0.00143192 0)
(-0.0522456 0.00156829 -2.71215e-22)
(-0.0577756 0.00168965 0)
(-0.0633086 0.00178937 0)
(-0.0687415 0.00186071 2.47665e-22)
(-0.0739635 0.00189733 0)
(-0.0788597 0.00189371 2.11171e-22)
(-0.0833149 0.00184568 3.71828e-22)
(-0.087217 0.0017509 0)
(-0.0904612 0.00160914 0)
(-0.0929534 0.00142209 0)
(-0.0946138 0.00119243 0)
(-0.0953792 0.00092459 0)
(-0.0952021 0.000627602 -1.19558e-22)
(-0.0940575 0.000309909 -2.25804e-22)
(-0.0919455 -1.94002e-05 -3.35467e-22)
(-0.0888892 -0.000349365 0)
(-0.084929 -0.000669324 5.58013e-22)
(-0.0801241 -0.00096989 0)
(-0.0745499 -0.00124299 -7.72105e-22)
(-0.0682949 -0.00148203 -8.71057e-22)
(-0.0614585 -0.00168205 0)
(-0.0541473 -0.0018398 0)
(-0.0464724 -0.00195372 0)
(-0.0385469 -0.0020238 -1.16987e-21)
(-0.0304825 -0.00205137 0)
(-0.022388 -0.00203889 0)
(-0.014367 -0.00198957 0)
(-0.00651718 -0.00190711 0)
(0.00107063 -0.00179475 0)
(0.00831462 -0.00165556 0)
(0.0151445 -0.00149421 0)
(0.0214937 -0.00131634 0)
(0.0273038 -0.00112725 9.33549e-22)
(0.032526 -0.000931352 0)
(0.0371213 -0.000732545 0)
(0.0410595 -0.00053447 -6.36619e-22)
(0.0443201 -0.000340649 -5.32357e-22)
(0.046892 -0.000154485 0)
(0.0487752 2.07774e-05 3.24953e-22)
(0.0499802 0.000182135 -2.24545e-22)
(0.050529 0.000326832 0)
(0.0504543 0.000452412 3.62864e-23)
(0.0498002 0.000557647 0)
(0.048621 0.000641305 0)
(0.046978 0.000703218 2.00662e-22)
(0.0449389 0.000743876 0)
(0.0425756 0.000764421 -3.21864e-22)
(0.0399619 0.000766579 0)
(0.0371708 0.00075255 4.12332e-22)
(0.0342725 0.000724862 4.46504e-22)
(0.0313323 0.000686209 4.73819e-22)
(0.0284086 0.000639302 9.89581e-22)
(0.0255517 0.000586743 -1.02002e-21)
(0.0228032 0.000530916 0)
(0.0201953 0.000473929 0)
(0.0177514 0.000417572 0)
(0.0154862 0.00036331 -1.05276e-21)
(0.0134066 0.000312297 -1.04525e-21)
(0.0115128 0.000265398 1.0339e-21)
(0.0097992 0.000223217 0)
(0.00825556 0.000186135 -1.00386e-21)
(0.0068682 0.000154336 -9.86956e-22)
(0.00562093 0.000127832 -9.6977e-22)
(0.00449608 0.000106483 0)
(0.00347537 9.00131e-05 0)
(0.00254077 7.80205e-05 0)
(0.00167528 6.99936e-05 -9.07525e-22)
(0.000863578 6.53307e-05 0)
(9.25889e-05 6.336e-05 0)
(-0.00064806 6.33119e-05 8.71906e-22)
(-0.00136591 6.44731e-05 0)
(-0.0020654 6.62514e-05 0)
(-0.00274836 6.81089e-05 8.42021e-22)
(-0.00341433 6.95844e-05 0)
(-0.00406102 7.03373e-05 0)
(-0.00468484 7.01474e-05 -8.15629e-22)
(-0.00528144 6.89043e-05 -8.0662e-22)
(-0.00584624 6.65917e-05 0)
(-0.00637482 6.32696e-05 7.87392e-22)
(-0.00686326 5.9056e-05 0)
(-0.00730838 5.41091e-05 -7.66033e-22)
(-0.0077079 4.86101e-05 0)
(-0.00806053 4.2749e-05 -7.4239e-22)
(-0.00836594 3.67121e-05 -7.29787e-22)
(-0.00862474 3.06726e-05 0)
(-0.00883838 2.47829e-05 0)
(-0.00900902 1.91702e-05 0)
(-0.00913941 1.39339e-05 0)
(-0.00923272 9.14227e-06 0)
(-0.00929241 4.82314e-06 0)
(-0.00932223 1.0125e-06 0)
(-0.00932569 -2.02001e-06 -6.20108e-22)
(-0.00930634 -4.66245e-06 6.06503e-22)
(-0.00926781 -6.8828e-06 0)
(-0.00921338 -8.65134e-06 0)
(-0.00914605 -9.99758e-06 0)
(-0.0090686 -1.09699e-05 0)
(-0.0089835 -1.16161e-05 1.08594e-21)
(-0.00889297 -1.19822e-05 0)
(-0.00879891 -1.21117e-05 -1.04018e-21)
(-0.008703 -1.2045e-05 1.01844e-21)
(-0.00860662 -1.18188e-05 0)
(-0.00851094 -1.1466e-05 0)
(-0.00841694 -1.10158e-05 0)
(-0.00832537 -1.04933e-05 -9.38699e-22)
(-0.00823686 -9.92008e-06 -9.20427e-22)
(-0.00815185 -9.31446e-06 0)
(-0.00807068 -8.69161e-06 -8.85639e-22)
(-0.00799359 -8.064e-06 -8.69047e-22)
(-0.0079207 -7.44166e-06 8.52941e-22)
(-0.00785207 -6.83255e-06 0)
(-0.00778769 -6.24289e-06 0)
(-0.0077275 -5.67741e-06 8.07178e-22)
(-0.0076714 -5.13959e-06 0)
(-0.00761924 -4.63188e-06 0)
(-0.00757086 -4.15582e-06 0)
(-0.00752608 -3.71217e-06 0)
(-0.00748469 -3.30108e-06 -7.37476e-22)
(-0.00744648 -2.92214e-06 -7.24267e-22)
(-0.00741124 -2.57451e-06 0)
(-0.00737875 -2.25701e-06 -6.98395e-22)
(-0.00734881 -1.96812e-06 0)
(-0.0073212 -1.70616e-06 0)
(-0.00729573 -1.4692e-06 -6.60682e-22)
(-0.0072722 -1.25523e-06 0)
(-0.00725045 -1.06209e-06 -6.36093e-22)
(-0.0072303 -8.8757e-07 0)
(-0.00721161 -7.29312e-07 0)
(-0.00719424 -5.84785e-07 -5.99802e-22)
(-0.00717809 -4.50916e-07 0)
(-0.00716307 -3.23435e-07 -5.75888e-22)
(-0.00714915 -1.9542e-07 0)
(-0.00713636 -5.49589e-08 0)
(-0.0071249 1.17993e-07 0)
(-0.00711517 3.53798e-07 5.28389e-22)
(-0.00710793 6.92684e-07 0)
(-0.00710429 1.17367e-06 -5.04546e-22)
(-0.00710568 1.79466e-06 0)
(-0.00711345 2.45145e-06 0)
(-0.00712791 3.19995e-06 0)
(-0.00714682 3.83253e-06 0)
(-0.00716384 3.85483e-06 0)
(-0.00716585 2.68611e-06 0)
(-0.00712895 -1.66287e-06 0)
(-0.0070295 -1.01219e-05 7.91352e-22)
(-0.0068373 -1.43706e-05 0)
(-0.0060791 -0.000124526 0)
(2.93446e-05 -0.000225017 3.32876e-22)
(0.000255742 -0.000598766 -4.29146e-22)
(0.000621661 -0.000873891 0)
(0.0010778 -0.00103744 2.8587e-22)
(0.00155675 -0.00108694 0)
(0.00199515 -0.00102715 1.44844e-22)
(0.0023338 -0.000868339 -2.90866e-22)
(0.00251742 -0.000624918 -2.9379e-22)
(0.00249628 -0.000314012 0)
(0.00222769 4.63377e-05 -3.01286e-22)
(0.00167672 0.00043936 -1.55355e-22)
(0.000815197 0.00085158 0)
(-0.000380171 0.00127459 0)
(-0.0019304 0.00170633 0)
(-0.00385765 0.00215129 0)
(-0.00618858 0.00261981 -1.72849e-22)
(-0.00895691 0.00312634 0)
(-0.0122049 0.00368719 3.46363e-22)
(-0.0159832 0.00431795 0)
(-0.0203493 0.00503106 0)
(-0.0253642 0.00583407 -3.72887e-22)
(-0.0310883 0.0067286 0)
(-0.0375765 0.00771002 3.94696e-22)
(-0.0448732 0.00876768 -2.17087e-22)
(-0.0530076 0.00988533 2.23777e-22)
(-0.0619888 0.0110414 -2.30371e-22)
(-0.0718014 0.0122094 -2.36685e-22)
(-0.0824025 0.0133577 0)
(-0.0937184 0.0144505 0)
(-0.105643 0.015448 2.5168e-22)
(-0.118039 0.0163076 -2.3292e-22)
(-0.130736 0.0169859 0)
(-0.143538 0.017441 0)
(-0.156229 0.0176342 2.51921e-22)
(-0.168574 0.0175333 0)
(-0.180335 0.0171142 0)
(-0.191272 0.0163632 -2.25978e-22)
(-0.201156 0.0152776 0)
(-0.209775 0.0138667 2.07398e-22)
(-0.216939 0.0121509 -3.3697e-22)
(-0.222489 0.0101614 0)
(-0.226296 0.00793733 0)
(-0.228268 0.00552332 -3.60046e-22)
(-0.228346 0.00296899 -2.07088e-22)
(-0.226501 0.000331851 -3.75056e-23)
(-0.222759 -0.00232287 -3.61292e-23)
(-0.217181 -0.0049345 2.08509e-22)
(-0.20984 -0.00744899 8.56825e-22)
(-0.200841 -0.00981785 -7.56217e-22)
(-0.190309 -0.0119994 -5.24299e-22)
(-0.178386 -0.0139591 0)
(-0.165229 -0.0156695 7.36922e-22)
(-0.151004 -0.0171109 -7.60402e-22)
(-0.135885 -0.0182707 0)
(-0.120051 -0.0191439 0)
(-0.103682 -0.0197319 0)
(-0.086955 -0.0200419 1.17607e-21)
(-0.0700437 -0.0200861 0)
(-0.0531159 -0.0198805 -2.4783e-21)
(-0.0363318 -0.0194441 0)
(-0.0198427 -0.018797 -2.56501e-21)
(-0.00379333 -0.0179599 0)
(0.0116771 -0.0169536 2.46712e-21)
(0.0264514 -0.015801 0)
(0.040412 -0.0145237 -2.10653e-21)
(0.0534495 -0.0131432 9.2032e-22)
(0.0654649 -0.0116801 0)
(0.0763692 -0.0101551 1.48117e-21)
(0.0860829 -0.00858879 6.58535e-22)
(0.0945379 -0.00700256 5.48061e-22)
(0.101679 -0.00541851 0)
(0.107465 -0.00385961 2.90966e-22)
(0.111874 -0.00234934 2.29151e-22)
(0.114902 -0.000911326 0)
(0.116566 0.000431003 -3.69817e-23)
(0.116907 0.00165649 -1.25095e-22)
(0.115989 0.00274723 0)
(0.113901 0.00368895 -2.04315e-22)
(0.110752 0.00447201 0)
(0.106668 0.00509168 9.92896e-22)
(0.101791 0.00554833 0)
(0.0962713 0.00584739 -1.27063e-21)
(0.0902622 0.00599904 -4.61124e-22)
(0.0839172 0.00601747 4.83847e-22)
(0.0773822 0.00591997 1.01152e-21)
(0.0707916 0.00572587 -1.04503e-21)
(0.0642643 0.0054554 0)
(0.0579007 0.00512869 0)
(0.0517813 0.00476486 0)
(0.045966 0.00438133 3.35638e-21)
(0.0404954 0.00399334 1.1276e-21)
(0.0353916 0.00361368 -1.12125e-21)
(0.0306611 0.00325258 0)
(0.0262968 0.00291781 -1.06951e-21)
(0.022281 0.0026148 1.08579e-21)
(0.0185882 0.00234685 1.07141e-21)
(0.0151872 0.00211534 0)
(0.0120441 0.00191997 0)
(0.00912406 0.00175892 0)
(0.00639343 0.00162908 1.01734e-21)
(0.0038214 0.00152629 0)
(0.00138141 0.00144565 -1.97343e-21)
(-0.000947621 0.00138172 -2.93704e-21)
(-0.00318153 0.00132896 1.92716e-21)
(-0.00532952 0.00128238 0)
(-0.00739538 0.00123769 9.33658e-22)
(-0.00937827 0.00119137 0)
(-0.0112737 0.00114087 1.84052e-21)
(-0.0130747 0.00108464 -9.0467e-22)
(-0.0147729 0.00102205 -8.94968e-22)
(-0.0163601 0.000953225 0)
(-0.0178283 0.000878909 -2.63934e-21)
(-0.0191712 0.000800285 1.73396e-21)
(-0.0203844 0.000718812 8.58023e-22)
(-0.0214652 0.000636078 0)
(-0.0224136 0.000553681 8.31472e-22)
(-0.0232316 0.00047312 2.44854e-21)
(-0.023923 0.000395731 0)
(-0.0244937 0.000322632 1.5739e-21)
(-0.0249508 0.000254702 1.54436e-21)
(-0.0253026 0.000192568 1.51442e-21)
(-0.0255581 0.000136617 0)
(-0.0257269 8.70071e-05 0)
(-0.0258186 4.37405e-05 0)
(-0.0258428 6.87824e-06 -6.96931e-22)
(-0.0258089 -2.42076e-05 -6.82342e-22)
(-0.0257257 -4.98906e-05 0)
(-0.0256015 -7.05594e-05 -1.3073e-21)
(-0.0254439 -8.66913e-05 -1.27966e-21)
(-0.02526 -9.87921e-05 0)
(-0.0250558 -0.000107364 -1.22616e-21)
(-0.024837 -0.000112892 -2.40284e-21)
(-0.0246083 -0.000115831 1.17634e-21)
(-0.0243738 -0.000116601 1.15394e-21)
(-0.0241372 -0.000115584 0)
(-0.0239013 -0.000113124 0)
(-0.0236687 -0.000109522 0)
(-0.0234414 -0.000105042 1.06582e-21)
(-0.0232208 -9.99143e-05 -1.04707e-21)
(-0.0230084 -9.43326e-05 -2.05435e-21)
(-0.0228049 -8.8462e-05 1.00794e-21)
(-0.022611 -8.244e-05 -9.90809e-22)
(-0.0224272 -7.63803e-05 -9.72217e-22)
(-0.0222536 -7.03754e-05 0)
(-0.0220903 -6.44996e-05 0)
(-0.0219372 -5.88115e-05 9.22846e-22)
(-0.0217941 -5.33563e-05 0)
(-0.0216607 -4.81672e-05 0)
(-0.0215366 -4.32678e-05 -1.75119e-21)
(-0.0214214 -3.8673e-05 0)
(-0.0213147 -3.43904e-05 -8.45965e-22)
(-0.0212158 -3.04215e-05 8.30963e-22)
(-0.0211244 -2.67627e-05 0)
(-0.0210399 -2.34062e-05 -8.02697e-22)
(-0.0209618 -2.03409e-05 0)
(-0.0208895 -1.75526e-05 0)
(-0.0208227 -1.50253e-05 7.60615e-22)
(-0.0207607 -1.27412e-05 -1.494e-21)
(-0.0207032 -1.06811e-05 7.33294e-22)
(-0.0206497 -8.82493e-06 0)
(-0.0205999 -7.15122e-06 0)
(-0.0205534 -5.63622e-06 -6.92934e-22)
(-0.0205099 -4.25069e-06 0)
(-0.0204692 -2.9533e-06 -6.66164e-22)
(-0.0204311 -1.67804e-06 0)
(-0.0203957 -3.14404e-07 0)
(-0.0203633 1.31708e-06 0)
(-0.020335 3.48119e-06 -6.12782e-22)
(-0.0203121 6.50869e-06 0)
(-0.020297 1.06927e-05 5.85903e-22)
(-0.0202925 1.60414e-05 0)
(-0.0203005 2.18822e-05 0)
(-0.0203199 2.67121e-05 -1.08801e-21)
(-0.0203431 2.74478e-05 1.05839e-21)
(-0.0203518 1.91115e-05 0)
(-0.0203113 -5.06105e-06 0)
(-0.0201649 -5.44951e-05 0)
(-0.0198546 -0.000140122 -2.77656e-21)
(-0.0192804 -0.000294518 0)
(-0.0178328 -0.000648357 1.69614e-21)
(3.19855e-05 -0.000536614 -3.30656e-24)
(0.000277031 -0.00131942 5.67317e-22)
(0.000639405 -0.00182192 0)
(0.00104806 -0.00205088 -5.6783e-22)
(0.00141253 -0.00201246 0)
(0.00164809 -0.00171821 0)
(0.00167476 -0.00118772 3.61725e-24)
(0.00141621 -0.00044844 2.9427e-22)
(0.000801419 0.000466339 2.93269e-22)
(-0.000233329 0.00152087 3.01799e-22)
(-0.00174456 0.00268136 0)
(-0.00378205 0.00392067 0)
(-0.00639137 0.00522221 -3.03625e-22)
(-0.00961681 0.00658234 -6.11936e-22)
(-0.0135049 0.00801083 6.16972e-22)
(-0.0181077 0.00952889 0)
(-0.0234843 0.0111652 6.29214e-22)
(-0.0297013 0.01295 -3.3499e-22)
(-0.0368301 0.0149095 0)
(-0.0449428 0.0170595 6.57364e-22)
(-0.0541061 0.0194018 3.53905e-22)
(-0.0643734 0.0219211 -6.85463e-22)
(-0.0757773 0.0245847 -3.69145e-22)
(-0.0883219 0.0273431 0)
(-0.101976 0.0301312 7.44177e-22)
(-0.116668 0.0328705 7.68037e-22)
(-0.132282 0.0354715 0)
(-0.148655 0.0378364 8.20423e-22)
(-0.165582 0.0398634 0)
(-0.182817 0.0414509 8.74443e-22)
(-0.200083 0.0425038 4.32816e-22)
(-0.217081 0.0429385 0)
(-0.233501 0.0426888 0)
(-0.249032 0.0417101 0)
(-0.263379 0.0399822 0)
(-0.27627 0.0375107 0)
(-0.287464 0.0343264 0)
(-0.29676 0.030483 8.888e-22)
(-0.303996 0.0260543 -1.19608e-21)
(-0.309055 0.0211299 0)
(-0.311864 0.0158104 0)
(-0.312391 0.0102026 0)
(-0.310639 0.00441829 -1.38643e-22)
(-0.306642 -0.00142521 1.8963e-22)
(-0.3005 -0.00720458 2.03662e-22)
(-0.292309 -0.0128164 1.36867e-22)
(-0.282178 -0.0181739 1.86445e-22)
(-0.270239 -0.0231999 -5.03919e-22)
(-0.256632 -0.0278282 1.20101e-22)
(-0.241515 -0.0320033 -7.84933e-22)
(-0.22505 -0.0356815 0)
(-0.20741 -0.0388308 -1.19394e-21)
(-0.188772 -0.0414308 1.0672e-22)
(-0.169316 -0.0434723 0)
(-0.149221 -0.0449571 0)
(-0.128665 -0.0458962 1.91723e-21)
(-0.107822 -0.0463094 0)
(-0.0868598 -0.0462232 0)
(-0.0659405 -0.045669 -2.17343e-21)
(-0.0452171 -0.0446819 -4.6828e-21)
(-0.024835 -0.043298 2.48039e-21)
(-0.00493519 -0.0415545 0)
(0.0143453 -0.0394882 -2.40151e-21)
(0.0328941 -0.0371357 0)
(0.0505909 -0.0345299 -1.86065e-21)
(0.0673182 -0.0317024 -1.83784e-21)
(0.0829647 -0.0286847 3.10337e-21)
(0.0974239 -0.0255084 1.26938e-21)
(0.110594 -0.0222069 0)
(0.12238 -0.0188159 -1.86305e-21)
(0.132695 -0.0153742 0)
(0.141461 -0.0119245 -1.65595e-21)
(0.148616 -0.00851249 -6.8153e-22)
(0.154115 -0.00518705 -3.19428e-22)
(0.157933 -0.00199849 -2.15757e-23)
(0.160071 0.00100199 4.57722e-22)
(0.160555 0.00376546 0)
(0.15944 0.00624841 0)
(0.156817 0.00841519 -1.11626e-21)
(0.152803 0.0102394 -1.9446e-21)
(0.147542 0.0117054 0)
(0.141201 0.0128089 7.98013e-22)
(0.133964 0.0135578 0)
(0.126024 0.0139712 -2.78823e-21)
(0.117577 0.0140786 1.68207e-23)
(0.108815 0.0139174 -8.60129e-24)
(0.0999149 0.0135308 2.05849e-21)
(0.0910375 0.0129649 0)
(0.0823189 0.0122662 -2.11011e-21)
(0.0738691 0.0114793 -1.49873e-23)
(0.0657715 0.0106448 0)
(0.0580828 0.00979821 0)
(0.0508355 0.00896906 0)
(0.044041 0.00818061 2.10684e-21)
(0.0376935 0.00745 0)
(0.0317734 0.00678866 0)
(0.0262516 0.00620282 0)
(0.0210932 0.00569409 0)
(0.0162603 0.00526007 0)
(0.0117152 0.00489492 1.96809e-21)
(0.00742307 0.00459009 0)
(0.00335331 0.00433508 1.96041e-21)
(-0.000518183 0.00411829 1.9426e-21)
(-0.00420955 0.00392759 -1.91758e-21)
(-0.00773147 0.00375165 0)
(-0.0110878 0.00358095 -1.86689e-21)
(-0.0142772 0.00340785 0)
(-0.0172945 0.00322695 -1.82173e-21)
(-0.0201317 0.00303517 1.79997e-21)