/*--------------------------------*- C++ -*----------------------------------*\
  =========                 |
  \\      /  F ield         | OpenFOAM: The Open Source CFD Toolbox
   \\    /   O peration     | Website:  https://openfoam.org
    \\  /    A nd           | Version:  8
     \\/     M anipulation  |
\*---------------------------------------------------------------------------*/
FoamFile
{
    version     2.0;
    format      ascii;
    class       volScalarField;
    location    "0.3";
    object      p;
}
// * * * * * * * * * * * * * * * * * * * * * * * * * * * * * * * * * * * * * //

dimensions      [0 2 -2 0 0 0 0];

internalField   nonuniform List<scalar> 
12225
(
-0.10937
-0.109216
-0.109251
-0.108933
-0.108774
-0.108673
-0.10869
-0.108828
-0.109101
-0.109546
-0.110252
-0.111383
-0.113195
-0.116002
-0.120136
-0.125868
-0.133799
-0.148271
-0.1093
-0.10911
-0.109135
-0.108825
-0.108678
-0.10859
-0.108623
-0.10878
-0.109082
-0.10957
-0.110335
-0.111539
-0.113422
-0.116271
-0.120365
-0.125878
-0.132974
-0.1439
-0.109208
-0.108968
-0.108989
-0.108686
-0.108553
-0.10848
-0.10853
-0.108709
-0.109042
-0.109574
-0.110395
-0.111665
-0.113607
-0.116472
-0.12048
-0.125675
-0.131835
-0.139907
-0.109118
-0.108824
-0.108839
-0.10854
-0.108417
-0.108356
-0.108421
-0.108619
-0.108977
-0.10954
-0.110398
-0.111701
-0.113656
-0.116486
-0.120354
-0.125189
-0.130605
-0.136794
-0.109037
-0.108684
-0.108688
-0.10839
-0.108272
-0.10822
-0.108296
-0.108508
-0.108883
-0.109465
-0.110339
-0.111642
-0.113565
-0.116305
-0.119975
-0.124426
-0.129211
-0.134026
-0.108966
-0.108546
-0.108535
-0.108235
-0.108116
-0.108071
-0.108152
-0.108373
-0.108757
-0.109345
-0.110212
-0.111482
-0.113327
-0.115918
-0.119329
-0.123356
-0.127526
-0.131249
-0.108911
-0.108408
-0.108381
-0.108078
-0.107952
-0.107907
-0.107989
-0.108211
-0.108594
-0.109172
-0.110009
-0.11121
-0.112925
-0.115303
-0.118378
-0.121926
-0.125468
-0.128308
-0.10887
-0.10827
-0.108228
-0.107919
-0.107781
-0.10773
-0.107805
-0.108017
-0.108385
-0.108935
-0.109713
-0.110806
-0.112338
-0.11443
-0.117093
-0.120103
-0.123005
-0.125129
-0.108826
-0.108141
-0.108076
-0.107758
-0.107603
-0.107539
-0.107597
-0.107787
-0.108122
-0.108619
-0.109308
-0.110252
-0.111546
-0.113285
-0.115467
-0.117892
-0.120157
-0.121695
-0.108768
-0.10802
-0.107927
-0.107593
-0.107417
-0.107331
-0.10736
-0.107512
-0.107794
-0.108211
-0.10878
-0.109535
-0.110545
-0.111879
-0.113533
-0.11535
-0.117001
-0.11805
-0.108706
-0.107903
-0.10776
-0.107418
-0.107217
-0.107103
-0.107091
-0.107189
-0.107395
-0.107707
-0.108122
-0.108657
-0.109352
-0.110253
-0.111365
-0.11258
-0.113657
-0.114291
-0.108637
-0.107774
-0.107591
-0.107248
-0.107018
-0.10687
-0.106812
-0.106846
-0.106966
-0.107159
-0.107415
-0.10773
-0.108124
-0.108632
-0.109262
-0.109951
-0.110545
-0.110844
-0.108564
-0.107642
-0.107412
-0.107068
-0.106806
-0.106617
-0.106504
-0.106463
-0.106482
-0.106543
-0.106626
-0.106718
-0.106825
-0.106969
-0.107166
-0.107393
-0.107568
-0.107584
-0.108494
-0.107489
-0.107202
-0.10685
-0.106547
-0.106303
-0.106116
-0.105978
-0.105871
-0.105773
-0.105658
-0.105506
-0.105314
-0.105098
-0.104878
-0.104665
-0.104442
-0.104179
-0.108407
-0.107294
-0.106951
-0.106581
-0.10623
-0.105916
-0.105638
-0.105383
-0.105132
-0.10486
-0.104539
-0.104148
-0.103679
-0.103144
-0.10257
-0.101987
-0.101423
-0.100903
-0.108278
-0.107039
-0.106647
-0.106247
-0.105839
-0.105444
-0.105063
-0.104683
-0.104283
-0.103841
-0.103332
-0.10274
-0.102055
-0.101291
-0.100472
-0.0996369
-0.0988321
-0.0981138
-0.108065
-0.106725
-0.106282
-0.105837
-0.105363
-0.104882
-0.104394
-0.103892
-0.103357
-0.102772
-0.10212
-0.10139
-0.100579
-0.0996992
-0.0987721
-0.0978329
-0.0969252
-0.0961105
-0.107746
-0.106367
-0.105859
-0.105355
-0.104809
-0.10424
-0.103652
-0.103041
-0.102397
-0.101709
-0.100968
-0.10017
-0.0993198
-0.098427
-0.097511
-0.096598
-0.0957173
-0.0949179
-0.107385
-0.105975
-0.105407
-0.104841
-0.104225
-0.103576
-0.102902
-0.102207
-0.101487
-0.100737
-0.0999572
-0.0991489
-0.0983194
-0.0974802
-0.0966465
-0.0958365
-0.0950663
-0.09437
-0.10715
-0.10571
-0.105119
-0.104515
-0.103854
-0.103156
-0.102435
-0.101696
-0.100938
-0.100161
-0.0993672
-0.0985629
-0.0977566
-0.0969593
-0.0961844
-0.0954459
-0.0947528
-0.0941288
-0.106988
-0.105597
-0.104987
-0.104364
-0.103686
-0.102972
-0.102239
-0.101489
-0.100724
-0.0999446
-0.0991564
-0.0983662
-0.0975829
-0.0968171
-0.0960804
-0.0953846
-0.094735
-0.0941502
-0.106856
-0.105564
-0.104947
-0.104319
-0.103637
-0.102923
-0.102189
-0.101439
-0.100674
-0.0998978
-0.0991168
-0.0983389
-0.097573
-0.0968292
-0.0961179
-0.0954492
-0.094826
-0.0942621
-0.106754
-0.105553
-0.104963
-0.104336
-0.103653
-0.102938
-0.102203
-0.101448
-0.100677
-0.0998972
-0.0991152
-0.0983397
-0.0975798
-0.0968451
-0.0961455
-0.0954901
-0.0948801
-0.0943255
-0.106671
-0.105548
-0.105016
-0.104382
-0.103692
-0.10297
-0.102223
-0.101454
-0.10067
-0.0998786
-0.0990874
-0.0983057
-0.0975426
-0.0968077
-0.0961106
-0.0954596
-0.0948557
-0.0943056
-0.106611
-0.105548
-0.105098
-0.104444
-0.103739
-0.103001
-0.102234
-0.101446
-0.100643
-0.0998349
-0.0990297
-0.0982367
-0.0974652
-0.0967245
-0.0960241
-0.0953722
-0.0947697
-0.094221
-0.106557
-0.105623
-0.105183
-0.104517
-0.103794
-0.103033
-0.102244
-0.101433
-0.10061
-0.0997835
-0.0989621
-0.0981553
-0.0973723
-0.0966224
-0.0959148
-0.0952578
-0.0946527
-0.0941024
-0.106524
-0.10575
-0.105296
-0.104605
-0.10386
-0.103076
-0.102262
-0.10143
-0.100586
-0.0997402
-0.0989017
-0.0980795
-0.0972829
-0.0965211
-0.0958032
-0.0951374
-0.0945259
-0.0939701
-0.106561
-0.105893
-0.105428
-0.104709
-0.103939
-0.10313
-0.102293
-0.101439
-0.100575
-0.0997106
-0.0988545
-0.0980158
-0.0972038
-0.0964276
-0.0956962
-0.095018
-0.094396
-0.0938315
-0.106643
-0.106048
-0.105567
-0.104821
-0.104026
-0.103192
-0.102333
-0.101458
-0.100575
-0.0996926
-0.0988189
-0.0979631
-0.0971344
-0.096342
-0.0955946
-0.0949007
-0.0942646
-0.0936887
-0.106723
-0.106169
-0.105681
-0.104913
-0.104097
-0.103244
-0.102368
-0.101478
-0.10058
-0.0996831
-0.0987952
-0.0979254
-0.0970826
-0.096276
-0.0955145
-0.0948064
-0.0941569
-0.0935702
-0.14704
-0.146922
-0.146797
-0.146729
-0.14675
-0.14688
-0.147127
-0.147492
-0.147968
-0.148543
-0.149203
-0.149933
-0.150717
-0.151545
-0.15241
-0.15331
-0.154247
-0.15523
-0.15627
-0.157382
-0.158582
-0.159887
-0.161313
-0.162875
-0.164585
-0.166453
-0.168485
-0.170683
-0.173048
-0.175574
-0.178252
-0.181065
-0.183992
-0.187003
-0.19006
-0.193117
-0.196122
-0.199015
-0.201729
-0.204194
-0.206337
-0.208086
-0.209371
-0.210124
-0.210288
-0.209812
-0.208656
-0.206793
-0.204208
-0.200898
-0.196876
-0.192167
-0.186807
-0.180847
-0.174346
-0.167372
-0.160002
-0.152321
-0.144419
-0.136388
-0.128325
-0.120323
-0.112476
-0.104872
-0.0975928
-0.0907139
-0.0843008
-0.0784086
-0.0730809
-0.0683488
-0.0642311
-0.0607337
-0.0578508
-0.0555654
-0.0538506
-0.0526711
-0.0519846
-0.051744
-0.0518989
-0.0523969
-0.0531859
-0.0542146
-0.0554343
-0.0567994
-0.0582683
-0.0598035
-0.0613723
-0.0629465
-0.0645024
-0.0660205
-0.0674855
-0.0688852
-0.0702109
-0.0714563
-0.0726173
-0.0736916
-0.0746782
-0.0755774
-0.0763899
-0.0771175
-0.0777619
-0.0783255
-0.0788105
-0.0792195
-0.079555
-0.0798195
-0.0800157
-0.0801464
-0.0802142
-0.0802219
-0.0801725
-0.0800689
-0.0799141
-0.079711
-0.0794629
-0.0791727
-0.0788435
-0.0784784
-0.0780803
-0.0776522
-0.077197
-0.0767172
-0.0762156
-0.0756945
-0.0751561
-0.0746027
-0.0740361
-0.0734581
-0.0728701
-0.0722738
-0.0716701
-0.0710602
-0.0704452
-0.069826
-0.0692032
-0.0685773
-0.067949
-0.0673185
-0.0666863
-0.0660525
-0.0654173
-0.0647809
-0.0641434
-0.0635049
-0.0628652
-0.0622244
-0.0615823
-0.060939
-0.0602941
-0.0596476
-0.0589992
-0.0583488
-0.0576961
-0.0570409
-0.056383
-0.0557222
-0.0550583
-0.054391
-0.0537201
-0.0530455
-0.052367
-0.0516842
-0.0509971
-0.0503054
-0.0496089
-0.0489072
-0.0482001
-0.0474872
-0.0467679
-0.0460415
-0.0453071
-0.0445633
-0.0438078
-0.0430371
-0.042244
-0.0414156
-0.0405372
-0.0396004
-0.0385154
-0.0371541
-0.147364
-0.147191
-0.14704
-0.146975
-0.14701
-0.14715
-0.1474
-0.147758
-0.148214
-0.148759
-0.149376
-0.150051
-0.150772
-0.15153
-0.152319
-0.153139
-0.153995
-0.154894
-0.155848
-0.156872
-0.157981
-0.15919
-0.160517
-0.161973
-0.163571
-0.16532
-0.167228
-0.1693
-0.171537
-0.173939
-0.176499
-0.179206
-0.182044
-0.184989
-0.188007
-0.191058
-0.194092
-0.197051
-0.199871
-0.202479
-0.204799
-0.206754
-0.208267
-0.209265
-0.209683
-0.209461
-0.208554
-0.206929
-0.204566
-0.201459
-0.19762
-0.193073
-0.187857
-0.182021
-0.175615
-0.168707
-0.161383
-0.153731
-0.145845
-0.137818
-0.129748
-0.121731
-0.11386
-0.106225
-0.09891
-0.0919899
-0.0855318
-0.0795916
-0.0742136
-0.0694297
-0.0652591
-0.0617083
-0.0587716
-0.0564323
-0.0546635
-0.05343
-0.0526897
-0.0523953
-0.0524965
-0.0529411
-0.053677
-0.0546532
-0.0558214
-0.0571361
-0.0585562
-0.0600445
-0.0615688
-0.063101
-0.0646178
-0.0661
-0.0675321
-0.0689026
-0.0702025
-0.0714254
-0.0725672
-0.0736254
-0.0745989
-0.0754876
-0.0762922
-0.0770141
-0.0776549
-0.0782166
-0.0787013
-0.0791112
-0.0794486
-0.079716
-0.0799159
-0.0800507
-0.0801232
-0.0801358
-0.0800915
-0.0799931
-0.0798435
-0.0796457
-0.0794027
-0.0791175
-0.0787931
-0.0784327
-0.078039
-0.0776151
-0.0771638
-0.0766877
-0.0761895
-0.0756716
-0.0751363
-0.0745856
-0.0740214
-0.0734455
-0.0728595
-0.0722648
-0.0716628
-0.0710545
-0.0704409
-0.0698227
-0.0692008
-0.0685758
-0.0679481
-0.0673181
-0.0666863
-0.0660529
-0.065418
-0.0647819
-0.0641445
-0.063506
-0.0628664
-0.0622257
-0.0615837
-0.0609403
-0.0602954
-0.0596489
-0.0590004
-0.05835
-0.0576972
-0.057042
-0.056384
-0.0557232
-0.0550592
-0.0543918
-0.0537209
-0.0530463
-0.0523677
-0.0516849
-0.0509978
-0.0503061
-0.0496096
-0.048908
-0.0482009
-0.0474881
-0.0467689
-0.0460427
-0.0453086
-0.0445651
-0.0438101
-0.0430401
-0.0422484
-0.0414226
-0.0405523
-0.0396343
-0.0385756
-0.0372993
-0.147391
-0.147174
-0.146993
-0.146928
-0.146981
-0.147149
-0.147428
-0.147811
-0.148286
-0.148835
-0.149442
-0.15009
-0.150767
-0.151462
-0.152174
-0.152904
-0.153658
-0.154448
-0.155289
-0.156199
-0.157193
-0.15829
-0.159506
-0.160857
-0.162357
-0.164018
-0.165852
-0.16787
-0.170081
-0.172491
-0.175103
-0.177911
-0.180904
-0.184061
-0.187347
-0.19072
-0.19412
-0.197481
-0.200723
-0.203761
-0.206505
-0.208863
-0.210748
-0.212076
-0.212774
-0.212781
-0.212049
-0.210544
-0.208251
-0.205171
-0.20132
-0.196727
-0.191427
-0.185468
-0.178922
-0.171875
-0.164408
-0.156612
-0.148579
-0.140405
-0.132188
-0.124023
-0.116006
-0.108226
-0.100768
-0.093709
-0.0871158
-0.0810458
-0.0755443
-0.0706442
-0.0663654
-0.0627147
-0.0596867
-0.0572644
-0.0554207
-0.0541196
-0.0533183
-0.0529687
-0.0530196
-0.053418
-0.0541109
-0.0550468
-0.0561767
-0.0574549
-0.0588397
-0.0602942
-0.0617857
-0.0632865
-0.0647732
-0.0662269
-0.0676323
-0.0689778
-0.0702547
-0.0714569
-0.0725801
-0.073622
-0.0745814
-0.0754583
-0.0762532
-0.0769674
-0.0776022
-0.0781596
-0.0786414
-0.0790497
-0.0793866
-0.0796544
-0.0798554
-0.0799918
-0.0800664
-0.0800815
-0.0800398
-0.0799442
-0.0797976
-0.0796027
-0.0793626
-0.0790803
-0.0787588
-0.0784011
-0.0780101
-0.0775887
-0.0771398
-0.0766661
-0.0761701
-0.0756542
-0.0751207
-0.0745718
-0.0740092
-0.0734349
-0.0728503
-0.0722568
-0.0716558
-0.0710485
-0.0704357
-0.0698183
-0.0691971
-0.0685726
-0.0679454
-0.0673159
-0.0666845
-0.0660514
-0.0654167
-0.0647808
-0.0641436
-0.0635053
-0.0628659
-0.0622252
-0.0615833
-0.0609399
-0.0602951
-0.0596486
-0.0590002
-0.0583497
-0.057697
-0.0570417
-0.0563838
-0.0557229
-0.0550589
-0.0543916
-0.0537207
-0.053046
-0.0523674
-0.0516847
-0.0509976
-0.050306
-0.0496095
-0.048908
-0.0482012
-0.0474886
-0.0467697
-0.046044
-0.0453104
-0.0445677
-0.0438138
-0.0430456
-0.042257
-0.0414376
-0.0405806
-0.0396847
-0.0386727
-0.0375127
-0.146962
-0.146736
-0.146559
-0.146519
-0.146616
-0.14684
-0.147181
-0.147625
-0.148152
-0.14874
-0.149368
-0.150014
-0.150666
-0.151315
-0.151958
-0.152602
-0.153258
-0.153943
-0.154676
-0.15548
-0.15638
-0.157398
-0.158558
-0.159883
-0.161397
-0.163121
-0.165079
-0.167292
-0.16978
-0.172555
-0.175621
-0.178974
-0.182591
-0.186438
-0.190462
-0.194594
-0.198752
-0.202841
-0.206758
-0.210396
-0.213649
-0.216414
-0.218598
-0.220117
-0.220903
-0.220902
-0.220076
-0.218406
-0.21589
-0.212539
-0.208381
-0.203445
-0.197783
-0.19147
-0.184583
-0.1772
-0.169406
-0.161289
-0.152945
-0.144469
-0.135957
-0.127506
-0.119209
-0.111158
-0.103436
-0.0961218
-0.0892844
-0.0829823
-0.0772626
-0.0721595
-0.0676943
-0.0638747
-0.0606958
-0.0581406
-0.0561813
-0.054781
-0.0538958
-0.0534759
-0.0534685
-0.0538189
-0.0544724
-0.0553759
-0.0564788
-0.0577341
-0.0590991
-0.0605358
-0.0620109
-0.0634961
-0.0649677
-0.0664065
-0.0677971
-0.0691281
-0.0703907
-0.071579
-0.0726889
-0.0737181
-0.0746658
-0.0755319
-0.076317
-0.0770224
-0.0776496
-0.0782002
-0.0786762
-0.0790794
-0.0794119
-0.0796759
-0.0798735
-0.0800072
-0.0800791
-0.080092
-0.0800484
-0.079951
-0.0798027
-0.0796063
-0.0793649
-0.0790814
-0.0787588
-0.0784001
-0.0780083
-0.0775862
-0.0771367
-0.0766625
-0.0761661
-0.0756499
-0.0751162
-0.0745671
-0.0740044
-0.07343
-0.0728454
-0.072252
-0.071651
-0.0710437
-0.070431
-0.0698137
-0.0691926
-0.0685683
-0.0679412
-0.0673119
-0.0666806
-0.0660476
-0.0654131
-0.0647773
-0.0641403
-0.0635022
-0.0628628
-0.0622223
-0.0615805
-0.0609373
-0.0602926
-0.0596462
-0.0589979
-0.0583476
-0.0576949
-0.0570398
-0.0563819
-0.0557211
-0.0550572
-0.0543899
-0.0537191
-0.0530445
-0.052366
-0.0516834
-0.0509964
-0.0503049
-0.0496086
-0.0489073
-0.0482007
-0.0474885
-0.0467701
-0.046045
-0.0453124
-0.0445709
-0.0438189
-0.0430537
-0.0422703
-0.0414612
-0.0406224
-0.0397484
-0.038788
-0.0377664
-0.146018
-0.145821
-0.145691
-0.145714
-0.145887
-0.146197
-0.146626
-0.147154
-0.147756
-0.148403
-0.149069
-0.149733
-0.15038
-0.151004
-0.151606
-0.152196
-0.152793
-0.153419
-0.154105
-0.154882
-0.155786
-0.156853
-0.15812
-0.159625
-0.161408
-0.163505
-0.16595
-0.168773
-0.171991
-0.175611
-0.179619
-0.183986
-0.188659
-0.193567
-0.198622
-0.203719
-0.208743
-0.213576
-0.218097
-0.222189
-0.225744
-0.228663
-0.230864
-0.232277
-0.23285
-0.232547
-0.23135
-0.229256
-0.226276
-0.222435
-0.217768
-0.212326
-0.20618
-0.199398
-0.192054
-0.184228
-0.176008
-0.167482
-0.158742
-0.149882
-0.140997
-0.132182
-0.123529
-0.115128
-0.107065
-0.0994188
-0.0922596
-0.0856487
-0.0796356
-0.074257
-0.0695363
-0.0654829
-0.062093
-0.0593498
-0.0572257
-0.0556828
-0.0546759
-0.0541538
-0.0540617
-0.0543428
-0.0549404
-0.0557994
-0.056867
-0.0580946
-0.0594378
-0.0608568
-0.0623174
-0.0637901
-0.0652504
-0.0666784
-0.0680583
-0.0693783
-0.0706297
-0.0718065
-0.0729046
-0.073922
-0.0748577
-0.075712
-0.0764855
-0.0771796
-0.077796
-0.0783362
-0.0788022
-0.0791959
-0.0795194
-0.0797748
-0.0799642
-0.0800899
-0.0801544
-0.0801601
-0.0801096
-0.0800057
-0.0798512
-0.0796491
-0.0794022
-0.0791137
-0.0787864
-0.0784234
-0.0780277
-0.0776021
-0.0771494
-0.0766723
-0.0761733
-0.0756549
-0.0751193
-0.0745684
-0.0740043
-0.0734286
-0.072843
-0.0722487
-0.071647
-0.0710392
-0.0704259
-0.0698083
-0.069187
-0.0685625
-0.0679353
-0.0673059
-0.0666746
-0.0660417
-0.0654073
-0.0647717
-0.0641348
-0.0634969
-0.0628577
-0.0622174
-0.0615758
-0.0609328
-0.0602883
-0.0596421
-0.058994
-0.0583439
-0.0576914
-0.0570364
-0.0563787
-0.0557181
-0.0550543
-0.0543872
-0.0537165
-0.0530421
-0.0523637
-0.0516812
-0.0509944
-0.0503031
-0.0496071
-0.0489061
-0.0481999
-0.0474881
-0.0467703
-0.0460461
-0.0453146
-0.0445749
-0.0438254
-0.0430642
-0.0422875
-0.0414913
-0.0406733
-0.0398214
-0.0389102
-0.0380156
-0.144486
-0.144353
-0.144306
-0.144422
-0.144694
-0.145107
-0.145638
-0.146261
-0.146946
-0.147663
-0.148384
-0.149089
-0.149764
-0.150406
-0.151023
-0.151632
-0.15226
-0.152942
-0.15372
-0.154642
-0.15576
-0.157128
-0.158803
-0.160839
-0.16329
-0.166198
-0.169597
-0.173503
-0.177911
-0.182794
-0.188101
-0.193757
-0.199666
-0.205715
-0.21178
-0.21773
-0.223435
-0.228768
-0.233609
-0.237849
-0.241396
-0.244167
-0.2461
-0.247146
-0.247271
-0.24646
-0.24471
-0.242032
-0.23845
-0.234003
-0.228738
-0.222719
-0.216012
-0.208688
-0.200825
-0.192503
-0.183808
-0.174828
-0.165651
-0.156368
-0.147071
-0.137852
-0.128802
-0.120009
-0.111558
-0.103531
-0.0959998
-0.0890288
-0.0826705
-0.0769651
-0.0719387
-0.0676033
-0.0639568
-0.0609833
-0.0586552
-0.0569342
-0.0557737
-0.0551209
-0.054919
-0.055109
-0.0556319
-0.0564302
-0.0574491
-0.0586377
-0.0599496
-0.0613434
-0.0627833
-0.0642385
-0.0656835
-0.0670972
-0.0684633
-0.0697693
-0.0710064
-0.0721683
-0.073251
-0.0742524
-0.0751717
-0.0760092
-0.0767658
-0.077443
-0.0780426
-0.0785664
-0.0790162
-0.0793941
-0.0797023
-0.0799428
-0.0801178
-0.0802298
-0.0802811
-0.0802741
-0.0802117
-0.0800965
-0.0799314
-0.0797193
-0.0794632
-0.0791661
-0.078831
-0.0784609
-0.0780587
-0.0776273
-0.0771694
-0.0766877
-0.0761847
-0.0756628
-0.0751241
-0.0745707
-0.0740043
-0.0734267
-0.0728395
-0.0722439
-0.0716412
-0.0710325
-0.0704187
-0.0698005
-0.0691788
-0.0685541
-0.0679267
-0.0672974
-0.0666662
-0.0660334
-0.0653992
-0.0647638
-0.0641272
-0.0634895
-0.0628506
-0.0622106
-0.0615694
-0.0609267
-0.0602825
-0.0596366
-0.0589888
-0.0583389
-0.0576867
-0.057032
-0.0563745
-0.0557141
-0.0550506
-0.0543836
-0.0537131
-0.0530389
-0.0523607
-0.0516785
-0.0509919
-0.0503008
-0.049605
-0.0489044
-0.0481986
-0.0474874
-0.0467704
-0.0460471
-0.0453171
-0.0445793
-0.0438328
-0.0430761
-0.0423069
-0.0415235
-0.0407253
-0.0398948
-0.0390239
-0.0382209
-0.142307
-0.142268
-0.142333
-0.142559
-0.142939
-0.143456
-0.144087
-0.144804
-0.145576
-0.146372
-0.147168
-0.147946
-0.148698
-0.149429
-0.150154
-0.150901
-0.151712
-0.152637
-0.153734
-0.155071
-0.156719
-0.15875
-0.161234
-0.164234
-0.167799
-0.171959
-0.176721
-0.182065
-0.187942
-0.194275
-0.200965
-0.207893
-0.214927
-0.221925
-0.22875
-0.235264
-0.241339
-0.24686
-0.251723
-0.255837
-0.259129
-0.261538
-0.263019
-0.263541
-0.263088
-0.261658
-0.259261
-0.25592
-0.251674
-0.246569
-0.240665
-0.234026
-0.226721
-0.218827
-0.210421
-0.201587
-0.192406
-0.182962
-0.173343
-0.163633
-0.153919
-0.144289
-0.134832
-0.125633
-0.116778
-0.10835
-0.100422
-0.0930625
-0.0863284
-0.0802637
-0.0748986
-0.0702482
-0.0663128
-0.0630781
-0.0605168
-0.0585905
-0.0572514
-0.056445
-0.0561124
-0.0561923
-0.0566233
-0.0573453
-0.0583011
-0.0594375
-0.0607063
-0.0620642
-0.0634732
-0.0649013
-0.0663213
-0.0677117
-0.0690553
-0.070339
-0.0715535
-0.0726924
-0.0737514
-0.0747285
-0.075623
-0.0764352
-0.0771662
-0.0778177
-0.0783918
-0.0788903
-0.0793152
-0.0796688
-0.0799534
-0.0801712
-0.0803246
-0.0804158
-0.0804474
-0.0804219
-0.080342
-0.0802105
-0.0800304
-0.0798044
-0.0795355
-0.0792268
-0.0788812
-0.0785017
-0.0780911
-0.0776523
-0.077188
-0.0767007
-0.0761929
-0.0756668
-0.0751246
-0.0745682
-0.0739994
-0.0734198
-0.0728309
-0.0722341
-0.0716305
-0.071021
-0.0704068
-0.0697884
-0.0691665
-0.0685417
-0.0679144
-0.0672854
-0.0666545
-0.066022
-0.0653882
-0.0647533
-0.0641171
-0.0634799
-0.0628416
-0.0622021
-0.0615613
-0.060919
-0.0602753
-0.0596298
-0.0589824
-0.0583329
-0.057681
-0.0570267
-0.0563695
-0.0557094
-0.0550461
-0.0543794
-0.0537092
-0.0530352
-0.0523572
-0.0516752
-0.0509888
-0.050298
-0.0496026
-0.0489023
-0.0481969
-0.0474863
-0.04677
-0.0460479
-0.0453192
-0.0445836
-0.0438401
-0.043088
-0.0423259
-0.0415536
-0.040771
-0.0399592
-0.0391162
-0.0383644
-0.139467
-0.139547
-0.139742
-0.140082
-0.140563
-0.141175
-0.141895
-0.142698
-0.143556
-0.144445
-0.145345
-0.146246
-0.147148
-0.148068
-0.149035
-0.150092
-0.151296
-0.152716
-0.15443
-0.156521
-0.159074
-0.162169
-0.165872
-0.170231
-0.175271
-0.180982
-0.187327
-0.194234
-0.201605
-0.209317
-0.217234
-0.225208
-0.233092
-0.240741
-0.248019
-0.254801
-0.260976
-0.266444
-0.271121
-0.274937
-0.277832
-0.279763
-0.280698
-0.280621
-0.279527
-0.277424
-0.274335
-0.270296
-0.265357
-0.259571
-0.253003
-0.245725
-0.23781
-0.22934
-0.220393
-0.211052
-0.201396
-0.191508
-0.181466
-0.171351
-0.161244
-0.151227
-0.141383
-0.131796
-0.12255
-0.113727
-0.105405
-0.0976547
-0.0905377
-0.0841028
-0.078385
-0.0734035
-0.0691617
-0.0656474
-0.0628346
-0.0606845
-0.0591488
-0.0581713
-0.0576911
-0.0576447
-0.0579679
-0.0585986
-0.0594772
-0.0605479
-0.0617599
-0.0630678
-0.0644324
-0.0658203
-0.0672032
-0.0685582
-0.0698673
-0.0711168
-0.0722968
-0.0734005
-0.0744239
-0.0753646
-0.0762221
-0.0769969
-0.0776905
-0.0783048
-0.078842
-0.0793042
-0.0796938
-0.0800132
-0.0802648
-0.0804511
-0.0805745
-0.0806373
-0.0806423
-0.0805919
-0.080489
-0.0803362
-0.0801366
-0.079893
-0.0796083
-0.0792853
-0.0789271
-0.0785364
-0.0781162
-0.077669
-0.0771974
-0.076704
-0.0761911
-0.0756608
-0.0751152
-0.074556
-0.0739851
-0.0734039
-0.0728139
-0.0722163
-0.0716122
-0.0710026
-0.0703883
-0.0697701
-0.0691487
-0.0685243
-0.0678971
-0.0672691
-0.0666389
-0.0660072
-0.0653741
-0.0647399
-0.0641045
-0.0634681
-0.0628305
-0.0621916
-0.0615515
-0.0609099
-0.0602667
-0.0596218
-0.0589749
-0.0583259
-0.0576745
-0.0570206
-0.0563638
-0.0557041
-0.0550411
-0.0543747
-0.0537047
-0.053031
-0.0523533
-0.0516715
-0.0509854
-0.0502948
-0.0495997
-0.0488997
-0.0481948
-0.0474847
-0.0467691
-0.0460479
-0.0453207
-0.0445869
-0.0438462
-0.0430982
-0.0423419
-0.0415778
-0.0408057
-0.0400081
-0.0391812
-0.0384478
-0.136035
-0.136249
-0.136582
-0.137027
-0.137594
-0.13828
-0.139075
-0.139959
-0.140912
-0.141917
-0.142965
-0.144057
-0.145209
-0.146451
-0.14783
-0.149406
-0.151255
-0.15346
-0.156114
-0.159306
-0.16312
-0.167621
-0.172852
-0.178825
-0.185518
-0.192872
-0.200798
-0.209178
-0.217873
-0.226734
-0.235606
-0.244337
-0.252782
-0.260809
-0.268296
-0.275135
-0.281232
-0.286504
-0.290884
-0.294312
-0.296745
-0.298147
-0.298499
-0.297792
-0.296031
-0.293234
-0.289436
-0.284688
-0.279042
-0.272562
-0.26532
-0.257396
-0.248871
-0.239828
-0.230352
-0.220522
-0.210418
-0.200115
-0.189688
-0.17921
-0.168754
-0.158395
-0.148209
-0.138277
-0.128678
-0.119495
-0.110807
-0.102689
-0.0952065
-0.0884133
-0.0823496
-0.0770395
-0.0724901
-0.0686919
-0.0656204
-0.0632375
-0.0614943
-0.0603335
-0.0596925
-0.0595061
-0.0597079
-0.0602333
-0.0610186
-0.0620071
-0.0631464
-0.0643893
-0.0656946
-0.067027
-0.0683572
-0.0696615
-0.0709209
-0.0721209
-0.0732514
-0.0743052
-0.0752781
-0.0761679
-0.0769741
-0.0776975
-0.07834
-0.0789036
-0.0793908
-0.0798043
-0.0801468
-0.0804208
-0.0806291
-0.0807743
-0.0808589
-0.0808855
-0.0808567
-0.0807753
-0.0806438
-0.080465
-0.080242
-0.0799773
-0.0796738
-0.0793344
-0.0789617
-0.0785586
-0.0781276
-0.0776714
-0.0771924
-0.0766928
-0.076175
-0.0756408
-0.0750922
-0.0745309
-0.0739584
-0.0733764
-0.0727859
-0.0721883
-0.0715844
-0.0709754
-0.0703619
-0.0697446
-0.0691241
-0.0685011
-0.0678762
-0.0672482
-0.0666189
-0.0659884
-0.0653564
-0.0647234
-0.0640892
-0.0634538
-0.0628172
-0.0621793
-0.0615401
-0.0608993
-0.0602569
-0.0596126
-0.0589664
-0.058318
-0.0576672
-0.0570138
-0.0563575
-0.0556982
-0.0550356
-0.0543696
-0.0536999
-0.0530264
-0.052349
-0.0516674
-0.0509816
-0.0502912
-0.0495963
-0.0488966
-0.0481921
-0.0474824
-0.0467674
-0.046047
-0.0453208
-0.0445886
-0.0438502
-0.0431051
-0.0423531
-0.041594
-0.0408274
-0.040039
-0.0392193
-0.0384831
-0.132183
-0.132537
-0.133001
-0.133536
-0.134167
-0.134912
-0.135772
-0.136739
-0.137804
-0.138962
-0.14022
-0.141594
-0.143117
-0.144837
-0.146818
-0.149138
-0.151885
-0.155152
-0.159032
-0.163605
-0.168933
-0.175049
-0.181953
-0.189608
-0.19794
-0.206842
-0.216184
-0.225815
-0.235577
-0.245314
-0.254871
-0.264106
-0.272889
-0.281103
-0.288642
-0.295416
-0.301343
-0.306355
-0.310392
-0.313406
-0.31536
-0.316226
-0.315992
-0.314655
-0.312227
-0.308739
-0.30424
-0.298781
-0.292423
-0.285243
-0.277322
-0.26875
-0.259615
-0.250008
-0.240014
-0.229716
-0.21919
-0.208509
-0.19774
-0.186948
-0.176197
-0.165554
-0.155086
-0.144868
-0.134975
-0.125488
-0.116485
-0.108045
-0.100237
-0.0931191
-0.0867372
-0.0811198
-0.0762781
-0.072206
-0.0688807
-0.0662651
-0.0643112
-0.0629616
-0.0621518
-0.0618137
-0.0618794
-0.0622826
-0.0629595
-0.06385
-0.0648993
-0.0660589
-0.067286
-0.0685443
-0.0698033
-0.0710382
-0.0722295
-0.073362
-0.0744252
-0.0754118
-0.0763174
-0.0771397
-0.0778787
-0.0785354
-0.0791117
-0.0796103
-0.0800341
-0.080386
-0.0806691
-0.0808864
-0.0810409
-0.0811354
-0.0811725
-0.081155
-0.0810855
-0.0809668
-0.0808015
-0.0805923
-0.0803419
-0.080053
-0.0797282
-0.0793703
-0.0789817
-0.078565
-0.0781227
-0.0776571
-0.0771705
-0.0766649
-0.0761425
-0.0756049
-0.0750539
-0.0744911
-0.073918
-0.0733359
-0.0727458
-0.072149
-0.0715464
-0.0709387
-0.0703268
-0.0697112
-0.0690925
-0.0684712
-0.0678477
-0.067222
-0.0665946
-0.0659655
-0.0653349
-0.0647036
-0.0640709
-0.0634368
-0.0628017
-0.062165
-0.0615269
-0.0608872
-0.0602457
-0.0596023
-0.0589569
-0.0583093
-0.0576592
-0.0570064
-0.0563506
-0.0556918
-0.0550296
-0.0543639
-0.0536946
-0.0530214
-0.0523442
-0.0516629
-0.0509772
-0.0502871
-0.0495924
-0.048893
-0.0481886
-0.0474793
-0.0467646
-0.0460449
-0.0453194
-0.0445883
-0.0438512
-0.043108
-0.0423583
-0.0416017
-0.0408366
-0.0400527
-0.0392341
-0.0384852
-0.128189
-0.128674
-0.129253
-0.129859
-0.130538
-0.131332
-0.132256
-0.133318
-0.134524
-0.135888
-0.13743
-0.139188
-0.14121
-0.143564
-0.146329
-0.149593
-0.15345
-0.157989
-0.163287
-0.169398
-0.176348
-0.184123
-0.192674
-0.201915
-0.211726
-0.221967
-0.23248
-0.243103
-0.253677
-0.264049
-0.274078
-0.283638
-0.292613
-0.300902
-0.308414
-0.315071
-0.3208
-0.32554
-0.329239
-0.331854
-0.33335
-0.333706
-0.332912
-0.330969
-0.327898
-0.323744
-0.318556
-0.31239
-0.305323
-0.297442
-0.288841
-0.279619
-0.269876
-0.259708
-0.249207
-0.238457
-0.227535
-0.216508
-0.205437
-0.194379
-0.183388
-0.172521
-0.161837
-0.151401
-0.141284
-0.131562
-0.122312
-0.113614
-0.105538
-0.0981481
-0.0914933
-0.0856067
-0.0805031
-0.0761804
-0.0726194
-0.0697842
-0.0676251
-0.0660845
-0.0650988
-0.0646002
-0.064519
-0.0647867
-0.0653377
-0.0661107
-0.0670498
-0.0681048
-0.069232
-0.070394
-0.0715595
-0.0727029
-0.0738041
-0.0748479
-0.0758231
-0.0767225
-0.0775417
-0.0782785
-0.0789329
-0.0795064
-0.0800011
-0.0804201
-0.0807667
-0.0810442
-0.081256
-0.0814056
-0.0814961
-0.0815305
-0.0815118
-0.0814427
-0.081326
-0.0811644
-0.0809603
-0.0807164
-0.0804352
-0.0801192
-0.0797709
-0.0793926
-0.0789868
-0.0785556
-0.0781014
-0.0776262
-0.0771319
-0.0766205
-0.0760937
-0.0755532
-0.0750005
-0.074437
-0.0738639
-0.0732825
-0.0726937
-0.0720986
-0.0714979
-0.0708924
-0.0702829
-0.0696697
-0.0690535
-0.0684347
-0.0678135
-0.0671903
-0.0665652
-0.0659386
-0.0653107
-0.0646807
-0.0640496
-0.0634171
-0.0627838
-0.0621487
-0.061512
-0.0608735
-0.0602331
-0.0595907
-0.0589462
-0.0582995
-0.0576502
-0.0569982
-0.0563431
-0.0556848
-0.0550231
-0.0543578
-0.0536888
-0.0530159
-0.052339
-0.0516579
-0.0509724
-0.0502825
-0.0495879
-0.0488886
-0.0481845
-0.0474752
-0.0467607
-0.0460413
-0.0453162
-0.0445856
-0.0438492
-0.0431067
-0.0423577
-0.0416012
-0.040835
-0.040052
-0.0392314
-0.0384673
-0.1244
-0.124997
-0.12567
-0.126328
-0.127044
-0.127883
-0.12888
-0.130061
-0.13145
-0.133077
-0.134982
-0.13722
-0.139857
-0.142975
-0.146661
-0.151009
-0.156103
-0.162016
-0.168797
-0.176462
-0.184991
-0.194324
-0.204365
-0.214988
-0.226043
-0.23737
-0.248803
-0.260181
-0.271352
-0.282178
-0.292533
-0.302304
-0.311392
-0.319707
-0.327168
-0.333704
-0.339249
-0.343746
-0.347145
-0.349404
-0.350491
-0.350385
-0.349077
-0.346571
-0.3429
-0.338111
-0.33225
-0.325392
-0.317624
-0.309047
-0.299769
-0.2899
-0.279551
-0.268829
-0.257832
-0.246647
-0.235349
-0.224005
-0.212669
-0.201389
-0.19021
-0.179179
-0.168343
-0.157759
-0.147491
-0.137609
-0.128188
-0.119305
-0.111032
-0.103435
-0.0965665
-0.0904649
-0.0851482
-0.0806141
-0.0768447
-0.0738074
-0.0714555
-0.0697319
-0.0685721
-0.0679073
-0.0676679
-0.0677848
-0.0681916
-0.0688263
-0.0696321
-0.0705581
-0.0715599
-0.0725994
-0.0736449
-0.0746707
-0.0756562
-0.0765862
-0.0774496
-0.0782391
-0.0789505
-0.0795817
-0.0801329
-0.0806057
-0.0810028
-0.0813273
-0.081583
-0.0817736
-0.0819028
-0.0819741
-0.0819912
-0.0819571
-0.081875
-0.0817476
-0.0815777
-0.0813678
-0.0811205
-0.0808381
-0.0805229
-0.0801772
-0.0798032
-0.0794029
-0.0789786
-0.0785321
-0.0780653
-0.0775801
-0.0770781
-0.076561
-0.0760302
-0.0754872
-0.0749333
-0.0743696
-0.0737972
-0.0732171
-0.0726303
-0.0720376
-0.0714396
-0.0708371
-0.0702306
-0.0696206
-0.0690076
-0.0683918
-0.0677737
-0.0671534
-0.0665312
-0.0659072
-0.0652817
-0.0646545
-0.0640259
-0.0633959
-0.0627638
-0.0621304
-0.0614952
-0.0608582
-0.060219
-0.0595776
-0.0589342
-0.0582886
-0.0576404
-0.0569892
-0.0563348
-0.0556772
-0.055016
-0.0543512
-0.0536827
-0.0530102
-0.0523335
-0.0516527
-0.0509674
-0.0502776
-0.0495831
-0.0488839
-0.0481797
-0.0474704
-0.0467554
-0.0460364
-0.0453111
-0.0445806
-0.0438442
-0.0431015
-0.0423518
-0.041594
-0.0408251
-0.0400402
-0.0392169
-0.0384388
-0.121184
-0.121865
-0.122606
-0.123301
-0.124049
-0.12494
-0.126029
-0.127359
-0.128971
-0.130913
-0.133245
-0.136034
-0.139364
-0.143321
-0.147998
-0.153477
-0.15983
-0.1671
-0.175301
-0.184408
-0.194355
-0.205044
-0.216341
-0.228094
-0.240139
-0.252308
-0.264438
-0.276377
-0.287986
-0.29914
-0.309728
-0.319649
-0.328815
-0.337145
-0.344565
-0.351007
-0.356407
-0.360711
-0.363865
-0.365828
-0.366566
-0.366056
-0.364288
-0.36127
-0.357044
-0.351649
-0.345146
-0.33762
-0.329173
-0.319918
-0.309978
-0.299477
-0.28854
-0.277281
-0.265808
-0.254211
-0.242568
-0.23094
-0.219377
-0.207919
-0.196602
-0.185461
-0.174535
-0.163871
-0.153523
-0.143556
-0.134039
-0.12505
-0.116661
-0.108937
-0.10193
-0.0956776
-0.0902017
-0.0855037
-0.0815676
-0.0783609
-0.0758378
-0.0739424
-0.0726113
-0.0717767
-0.0713694
-0.0713206
-0.0715639
-0.0720372
-0.0726838
-0.0734526
-0.0742993
-0.0751858
-0.0760807
-0.0769582
-0.0777983
-0.0785858
-0.0793101
-0.0799642
-0.0805438
-0.0810472
-0.0814749
-0.0818286
-0.0821112
-0.0823262
-0.0824774
-0.0825688
-0.0826043
-0.0825877
-0.0825227
-0.0824124
-0.08226
-0.0820683
-0.08184