/*--------------------------------*- C++ -*----------------------------------*\
  =========                 |
  \\      /  F ield         | OpenFOAM: The Open Source CFD Toolbox
   \\    /   O peration     | Website:  https://openfoam.org
    \\  /    A nd           | Version:  8
     \\/     M anipulation  |
\*---------------------------------------------------------------------------*/
FoamFile
{
    version     2.0;
    format      ascii;
    class       surfaceScalarField;
    location    "0.3";
    object      phi;
}
// * * * * * * * * * * * * * * * * * * * * * * * * * * * * * * * * * * * * * //

dimensions      [0 3 -1 0 0 0 0];

internalField   nonuniform List<scalar> 
24170
(
-2.15392e-10
2.15392e-10
-5.29201e-10
3.13809e-10
-8.50509e-10
3.21307e-10
-1.10895e-09
2.58437e-10
-1.32434e-09
2.15397e-10
-1.49631e-09
1.71965e-10
-1.6259e-09
1.2959e-10
-1.70572e-09
7.98239e-11
-1.71815e-09
1.24242e-11
-1.63291e-09
-8.52368e-11
-1.41014e-09
-2.22766e-10
-1.01341e-09
-3.96733e-10
-4.32187e-10
-5.81225e-10
2.93168e-10
-7.25354e-10
1.04483e-09
-7.51663e-10
1.54757e-09
-5.02744e-10
1.14717e-09
4.00401e-10
7.70661e-09
-6.55944e-09
-6.29683e-10
8.45075e-10
-1.6269e-09
1.31103e-09
-2.61494e-09
1.30934e-09
-3.46661e-09
1.11011e-09
-4.18176e-09
9.30541e-10
-4.76832e-09
7.58529e-10
-5.22343e-09
5.84704e-10
-5.52516e-09
3.81552e-10
-5.62347e-09
1.10733e-10
-5.43662e-09
-2.72084e-10
-4.86291e-09
-7.96475e-10
-3.81937e-09
-1.44027e-09
-2.30551e-09
-2.09509e-09
-4.76824e-10
-2.55404e-09
1.28073e-09
-2.50921e-09
2.19739e-09
-1.41941e-09
2.79613e-10
2.31818e-09
1.69067e-08
-8.92047e-09
-1.00939e-09
1.85447e-09
-2.70588e-09
3.00752e-09
-4.40567e-09
3.00913e-09
-5.93017e-09
2.63461e-09
-7.23355e-09
2.23393e-09
-8.32419e-09
1.84917e-09
-9.19136e-09
1.45188e-09
-9.79717e-09
9.87359e-10
-1.00617e-08
3.75284e-10
-9.86052e-09
-4.73287e-10
-9.04729e-09
-1.6097e-09
-7.51798e-09
-2.96958e-09
-5.313e-09
-4.30007e-09
-2.73369e-09
-5.13335e-09
-4.56989e-10
-4.78591e-09
2.67807e-10
-2.14421e-09
-2.92375e-09
5.50974e-09
2.61881e-08
-1.22052e-08
-1.28098e-09
3.13545e-09
-3.58772e-09
5.31426e-09
-5.99123e-09
5.41264e-09
-8.22474e-09
4.86812e-09
-1.01826e-08
4.19176e-09
-1.18543e-08
3.52094e-09
-1.32161e-08
2.81362e-09
-1.42123e-08
1.98353e-09
-1.47376e-08
9.00609e-10
-1.46372e-08
-5.73681e-10
-1.37414e-08
-2.5055e-09
-1.19516e-08
-4.75942e-09
-9.37287e-09
-6.87875e-09
-6.45785e-09
-8.04838e-09
-4.13126e-09
-7.1125e-09
-3.91421e-09
-2.36126e-09
-7.8507e-09
9.44624e-09
3.47408e-08
-1.64034e-08
-1.39336e-09
4.52881e-09
-4.13578e-09
8.05669e-09
-7.1571e-09
8.43395e-09
-1.00795e-08
7.7905e-09
-1.27183e-08
6.83061e-09
-1.50233e-08
5.82588e-09
-1.69484e-08
4.73878e-09
-1.84191e-08
3.45416e-09
-1.93109e-08
1.79244e-09
-1.94541e-08
-4.30466e-10
-1.86789e-08
-3.28067e-09
-1.6916e-08
-6.52235e-09
-1.4345e-08
-9.44976e-09
-1.15423e-08
-1.08511e-08
-9.57599e-09
-9.07878e-09
-9.97251e-09
-1.96473e-09
-1.41602e-08
1.36339e-08
4.20714e-08
-2.14908e-08
-1.34525e-09
5.87405e-09
-4.27281e-09
1.09842e-08
-7.74104e-09
1.19022e-08
-1.1258e-08
1.13075e-08
-1.45461e-08
1.01187e-08
-1.74944e-08
8.77423e-09
-2.00249e-08
7.26925e-09
-2.20423e-08
5.47154e-09
-2.34114e-08
3.16163e-09
-2.39647e-08
1.22831e-10
-2.35549e-08
-3.69055e-09
-2.21586e-08
-7.91864e-09
-2.00207e-08
-1.15877e-08
-1.7782e-08
-1.30898e-08
-1.65142e-08
-1.03465e-08
-1.75223e-08
-9.56654e-10
-2.15777e-08
1.76893e-08
4.79044e-08
-2.74107e-08
-1.13904e-09
7.0131e-09
-3.9702e-09
1.38154e-08
-7.63434e-09
1.55663e-08
-1.15667e-08
1.52398e-08
-1.53974e-08
1.39493e-08
-1.89404e-08
1.23173e-08
-2.20756e-08
1.04045e-08
-2.46867e-08
8.08267e-09
-2.66372e-08
5.1121e-09
-2.77784e-08
1.26403e-09
-2.80039e-08
-3.46511e-09
-2.73426e-08
-8.57989e-09
-2.60758e-08
-1.28545e-08
-2.48254e-08
-1.43401e-08
-2.45213e-08
-1.06507e-08
-2.60974e-08
6.19485e-10
-2.97553e-08
2.13472e-08
5.21391e-08
-3.399e-08
-7.68033e-10
7.78113e-09
-3.25551e-09
1.63029e-08
-6.80946e-09
1.91203e-08
-1.0894e-08
1.93244e-08
-1.50756e-08
1.81309e-08
-1.90904e-08
1.63321e-08
-2.27706e-08
1.40847e-08
-2.59802e-08
1.12922e-08
-2.85905e-08
7.72239e-09
-3.0487e-08
3.16057e-09
-3.16143e-08
-2.33785e-09
-3.20472e-08
-8.14702e-09
-3.206e-08
-1.28416e-08
-3.21642e-08
-1.4236e-08
-3.30236e-08
-9.79123e-09
-3.51346e-08
2.7304e-09
-3.82668e-08
2.44794e-08
5.48243e-08
-4.0952e-08
-3.56492e-10
8.13762e-09
-2.22928e-09
1.81757e-08
-5.34078e-09
2.22318e-08
-9.24793e-09
2.32315e-08
-1.35051e-08
2.23881e-08
-1.77857e-08
2.06127e-08
-2.18771e-08
1.81761e-08
-2.56279e-08
1.5043e-08
-2.89261e-08
1.10206e-08
-3.17022e-08
5.93669e-09
-3.39527e-08
-8.73546e-11
-3.57789e-08
-6.32084e-09
-3.7402e-08
-1.12185e-08
-3.91414e-08
-1.24966e-08
-4.13139e-08
-7.61873e-09
-4.39773e-08
5.39377e-09
-4.66067e-08
2.71088e-08
5.61417e-08
-4.79241e-08
7.83716e-12
8.12979e-09
-1.08793e-09
1.92714e-08
-3.41328e-09
2.45571e-08
-6.78516e-09
2.66034e-08
-1.07791e-08
2.6382e-08
-1.50399e-08
2.48735e-08
-1.93261e-08
2.24623e-08
-2.34801e-08
1.9197e-08
-2.74143e-08
1.49549e-08
-3.11081e-08
9.63049e-09
-3.46065e-08
3.41103e-09
-3.80109e-08
-2.91638e-09
-4.14464e-08
-7.78306e-09
-4.49921e-08
-8.95089e-09
-4.8586e-08
-4.02486e-09
-5.1889e-08
8.69682e-09
-5.41862e-08
2.9406e-08
5.63942e-08
-5.44386e-08
3.38414e-10
7.79137e-09
9.72767e-11
1.95126e-08
-1.29326e-09
2.59476e-08
-3.81925e-09
2.91294e-08
-7.18866e-09
2.97514e-08
-1.10868e-08
2.87716e-08
-1.52738e-08
2.66493e-08
-1.96015e-08
2.35247e-08
-2.40132e-08
1.93666e-08
-2.85359e-08
1.41532e-08
-3.32538e-08
8.12893e-09
-3.82494e-08
2.07929e-09
-4.35251e-08
-2.5074e-09
-4.89108e-08
-3.5652e-09
-5.39847e-08
1.04909e-09
-5.80723e-08
1.27843e-08
-6.03306e-08
3.16643e-08
5.59895e-08
-5.9926e-08
5.22025e-10
7.26935e-09
8.60228e-10
1.91744e-08
5.0471e-10
2.63032e-08
-7.8385e-10
3.0418e-08
-2.9021e-09
3.18697e-08
-5.64483e-09
3.15144e-08
-8.84133e-09
2.98458e-08
-1.23907e-08
2.70741e-08
-1.62732e-08
2.3249e-08
-2.05435e-08
1.84235e-08
-2.52932e-08
1.28786e-08
-3.05753e-08
7.36138e-09
-3.6303e-08
3.22031e-09
-4.21593e-08
2.29109e-09
-4.75684e-08
6.45817e-09
-5.1759e-08
1.6975e-08
-5.39308e-08
3.38361e-08
5.55506e-08
-5.34919e-08
7.53935e-10
6.51541e-09
1.75895e-09
1.81694e-08
2.22166e-09
2.58405e-08
1.78697e-09
3.08526e-08
3.7341e-10
3.32832e-08
-1.89743e-09
3.37852e-08
-4.89701e-09
3.28453e-08
-8.55692e-09
3.0734e-08
-1.28933e-08
2.75854e-08
-1.80003e-08
2.35305e-08
-2.39963e-08
1.88746e-08
-3.09196e-08
1.42846e-08
-3.85924e-08
1.08932e-08
-4.65122e-08
1.02109e-08
-5.38398e-08
1.37858e-08
-5.95302e-08
2.26654e-08
-6.2591e-08
3.68969e-08
5.53356e-08
-6.23761e-08
1.00856e-09
5.50686e-09
2.77403e-09
1.64039e-08
4.26055e-09
2.43539e-08
5.0542e-09
3.0059e-08
4.86237e-09
3.34751e-08
3.64369e-09
3.50039e-08
1.42226e-09
3.50668e-08
-1.80682e-09
3.39631e-08
-6.11656e-09
3.18952e-08
-1.16461e-08
2.90601e-08
-1.85385e-08
2.5767e-08
-2.68175e-08
2.25637e-08
-3.62323e-08
2.0308e-08
-4.61341e-08
2.01126e-08
-5.54732e-08
2.31249e-08
-6.29673e-08
3.01595e-08
-6.74164e-08
4.1346e-08
5.59676e-08
-6.80484e-08
1.17109e-09
4.33577e-09
3.5569e-09
1.40181e-08
6.07412e-09
2.18367e-08
8.28179e-09
2.78513e-08
9.72552e-09
3.20313e-08
1.01553e-08
3.45741e-08
9.43404e-09
3.57881e-08
7.43921e-09
3.59579e-08
4.01648e-09
3.53179e-08
-1.01924e-09
3.40958e-08
-7.82758e-09
3.25753e-08
-1.64271e-08
3.11632e-08
-2.65465e-08
3.04273e-08
-3.7502e-08
3.10682e-08
-4.8186e-08
3.38089e-08
-5.72187e-08
3.91922e-08
-6.32538e-08
4.73811e-08
5.80478e-08
-6.5334e-08
1.18146e-09
3.15431e-09
3.80242e-09
1.13971e-08
7.06175e-09
1.85774e-08
1.05208e-08
2.43923e-08
1.3666e-08
2.88861e-08
1.60797e-08
3.21604e-08
1.74563e-08
3.44115e-08
1.75438e-08
3.58704e-08
1.6108e-08
3.67537e-08
1.29322e-08
3.72716e-08
7.85444e-09
3.76531e-08
8.50353e-10
3.81673e-08
-7.85402e-09
3.91317e-08
-1.76815e-08
4.08957e-08
-2.7681e-08
4.38084e-08
-3.66247e-08
4.81359e-08
-4.32281e-08
5.39844e-08
6.12517e-08
-4.64319e-08
9.76551e-10
2.17776e-09
3.45318e-09
8.92049e-09
7.02781e-09
1.50028e-08
1.13104e-08
2.01096e-08
1.5829e-08
2.43675e-08
2.01148e-08
2.78747e-08
2.37698e-08
3.07565e-08
2.64659e-08
3.31743e-08
2.79306e-08
3.5289e-08
2.79497e-08
3.72525e-08
2.63896e-08
3.92131e-08
2.32392e-08
4.13178e-08
1.86635e-08
4.37074e-08
1.30513e-08
4.65079e-08
7.04009e-09
4.98196e-08
1.47536e-09
5.37006e-08
-2.69831e-09
5.81581e-08
6.3147e-08
-4.59364e-09
6.26726e-10
1.55103e-09
2.92193e-09
6.62528e-09
6.7065e-09
1.12182e-08
1.16278e-08
1.51883e-08
1.7268e-08
1.87273e-08
2.31937e-08
2.19489e-08
2.90137e-08
2.49365e-08
3.44121e-08
2.77759e-08
3.91536e-08
3.05475e-08
4.30829e-08
3.33232e-08
4.61297e-08
3.61663e-08
4.83184e-08
3.9129e-08
4.97793e-08
4.22465e-08
5.07558e-08
4.55314e-08
5.16037e-08
4.89717e-08
5.27718e-08
5.25325e-08
5.47642e-08
5.61657e-08
5.98267e-08
5.80845e-08
5.61015e-10
9.90016e-10
3.34105e-09
3.84525e-09
8.21727e-09
6.34199e-09
1.46501e-08
8.75548e-09
2.21485e-08
1.1229e-08
3.02669e-08
1.38305e-08
3.86326e-08
1.65708e-08
4.69853e-08
1.94232e-08
5.51748e-08
2.23581e-08
6.31413e-08
2.53567e-08
7.09003e-08
2.84073e-08
7.85312e-08
3.14981e-08
8.61666e-08
3.46111e-08
9.39796e-08
3.77184e-08
1.0217e-07
4.07816e-08
1.10948e-07
4.37539e-08
1.20525e-07
4.65886e-08
4.92541e-08
1.31098e-07
9.4674e-10
4.32764e-11
4.00122e-09
7.90768e-10
8.83364e-09
1.50956e-09
1.4804e-08
2.78516e-09
2.14101e-08
4.62286e-09
2.83038e-08
6.93674e-09
3.5272e-08
9.60261e-09
4.2214e-08
1.24812e-08
4.91064e-08
1.54657e-08
5.59771e-08
1.8486e-08
6.28884e-08
2.1496e-08
6.99248e-08
2.44617e-08
7.71829e-08
2.7353e-08
8.47617e-08
3.01396e-08
9.27542e-08
3.2789e-08
1.0124e-07
3.52679e-08
1.10282e-07
3.75468e-08
3.96083e-08
1.19928e-07
1.4772e-09
-1.43392e-09
5.36503e-09
-3.09706e-09
1.0684e-08
-3.80938e-09
1.66747e-08
-3.2056e-09
2.28838e-08
-1.58626e-09
2.90815e-08
7.39028e-10
3.51886e-08
3.49556e-09
4.12226e-08
6.44718e-09
4.72376e-08
9.45071e-09
5.33048e-08
1.24187e-08
5.94997e-08
1.53011e-08
6.58963e-08
1.80651e-08
7.25639e-08
2.06855e-08
7.95629e-08
2.31406e-08
8.69425e-08
2.54094e-08
9.47383e-08
2.74722e-08
1.02972e-07
2.93136e-08
3.09259e-08
1.11654e-07
1.79873e-09
-3.23266e-09
5.89338e-09
-7.19171e-09
1.0636e-08
-8.55203e-09
1.54254e-08
-7.99501e-09
2.00447e-08
-6.20547e-09
2.44827e-08
-3.69902e-09
2.884e-08
-8.61747e-10
3.32313e-08
2.05589e-09
3.77548e-08
4.92723e-09
4.24916e-08
7.68188e-09
4.75015e-08
1.02912e-08
5.28285e-08
1.27381e-08
5.85032e-08
1.50108e-08
6.45447e-08
1.70991e-08
7.09609e-08
1.89932e-08
7.77493e-08
2.06838e-08
8.4899e-08
2.21639e-08
2.34301e-08
9.23948e-08
1.66256e-09
-4.89522e-09
4.73789e-09
-1.0267e-08
7.58829e-09
-1.14024e-08
1.00375e-08
-1.04442e-08
1.22044e-08
-8.37238e-09
1.43038e-08
-5.79839e-09
1.65389e-08
-3.0969e-09
1.90498e-08
-4.54978e-10
2.19242e-08
2.05283e-09
2.52068e-08
4.39922e-09
2.89194e-08
6.57863e-09
3.30663e-08
8.59128e-09
3.76397e-08
1.04373e-08
4.26232e-08
1.21156e-08
4.79928e-08
1.36237e-08
5.37184e-08
1.49582e-08
5.97659e-08
1.61164e-08
1.70939e-08
6.61021e-08
9.40938e-10
-5.83615e-09
2.04253e-09
-1.13686e-08
2.3591e-09
-1.1719e-08
2.2513e-09
-1.03364e-08
2.07699e-09
-8.19807e-09
2.13359e-09
-5.85499e-09
2.60609e-09
-3.56939e-09
3.58387e-09
-1.43276e-09
5.09882e-09
5.37873e-10
7.15161e-09
2.34643e-09
9.7235e-09
4.00674e-09
1.27873e-08
5.52748e-09
1.63097e-08
6.91488e-09
2.02534e-08
8.17183e-09
2.45781e-08
9.29895e-09
2.92407e-08
1.02956e-08
3.41967e-08
1.11604e-08
1.18857e-08
3.94049e-08
-4.2369e-11
-5.79379e-09
-1.2103e-09
-1.02007e-08
-2.98005e-09
-9.94924e-09
-4.91186e-09
-8.40462e-09
-6.57286e-09
-6.53706e-09
-7.73326e-09
-4.6946e-09
-8.30205e-09
-3.0006e-09
-8.26439e-09
-1.47042e-09
-7.63866e-09
-8.78518e-11
-6.45864e-09
1.16641e-09
-4.76256e-09
2.31066e-09
-2.59158e-09
3.3565e-09
1.25859e-11
4.31072e-09
3.00766e-09
5.17676e-09
6.35064e-09
5.95597e-09
9.99769e-09
6.64857e-09
1.39045e-08
7.25359e-09
7.76049e-09
1.80297e-08
-1.01432e-09
-4.77947e-09
-3.60986e-09
-7.60515e-09
-6.53918e-09
-7.01993e-09
-9.21583e-09
-5.72797e-09
-1.13792e-08
-4.37367e-09
-1.29354e-08
-3.13839e-09
-1.38842e-08
-2.05184e-09
-1.4261e-08
-1.09358e-09
-1.41105e-08
-2.3842e-10
-1.34771e-08
5.33029e-10
-1.2402e-08
1.23558e-09
-1.09244e-08
1.87891e-09
-9.08192e-09
2.46822e-09
-6.91105e-09
3.0059e-09
-4.44788e-09
3.4928e-09
-1.729e-09
3.92969e-09
1.20843e-09
4.31616e-09
4.64134e-09
4.32758e-09
-1.6421e-09
-3.13736e-09
-4.62136e-09
-4.6259e-09
-7.58561e-09
-4.05567e-09
-1.01003e-08
-3.21325e-09
-1.20567e-08
-2.41726e-09
-1.34628e-08
-1.73228e-09
-1.43664e-08
-1.14828e-09
-1.48189e-08
-6.41042e-10
-1.48663e-08
-1.91056e-10
-1.45478e-08
2.14521e-10
-1.38967e-08
5.84525e-10
-1.29426e-08
9.24776e-10
-1.17127e-08
1.23833e-09
-1.02333e-08
1.52649e-09
-8.53023e-09
1.78972e-09
-6.62931e-09
2.02877e-09
-4.55797e-09
2.24481e-09
2.42929e-09
-2.34592e-09
-1.60203e-09
-1.53534e-09
-4.15514e-09
-2.07279e-09
-6.44749e-09
-1.76332e-09
-8.29891e-09
-1.36183e-09
-9.7025e-09
-1.01366e-09
-1.07081e-08
-7.26686e-10
-1.13694e-08
-4.86979e-10
-1.17299e-08
-2.80585e-10
-1.18233e-08
-9.76519e-11
-1.16764e-08
6.7703e-11
-1.13112e-08
2.19237e-10
-1.07458e-08
3.5946e-10
-9.99721e-09
4.89703e-10
-9.08119e-09
6.10468e-10
-8.01335e-09
7.21882e-10
-6.80895e-09
8.24361e-10
-5.48407e-09
9.19938e-10
1.00583e-09
-4.06061e-09
-1.12064e-09
-4.14694e-10
-2.69589e-09
-4.97535e-10
-4.03624e-09
-4.22976e-10
-5.08149e-09
-3.16577e-10
-5.86089e-09
-2.34266e-10
-6.41908e-09
-1.68501e-10
-6.79174e-09
-1.14317e-10
-7.00447e-09
-6.78514e-11
-7.07562e-09
-2.65032e-11
-7.01905e-09
1.11342e-11
-6.84571e-09
4.58933e-11
-6.5646e-09
7.83572e-11
-6.18374e-09
1.08835e-10
-5.71068e-09
1.37413e-10
-5.15289e-09
1.64091e-10
-4.51747e-09
1.88934e-10
-3.81086e-09
2.13328e-10
2.38611e-10
-3.04364e-09
-4.14694e-10
-9.12229e-10
-1.3352e-09
-1.65178e-09
-1.88605e-09
-2.05455e-09
-2.16887e-09
-2.23672e-09
-2.26322e-09
-2.25209e-09
-2.20619e-09
-2.12784e-09
-2.019e-09
-1.88159e-09
-1.7175e-09
-1.52856e-09
-1.31523e-09
-1.07662e-09
1.77412e-10
-1.77412e-10
9.16119e-10
-7.38707e-10
2.2163e-09
-1.30018e-09
3.96825e-09
-1.75195e-09
6.02776e-09
-2.05951e-09
8.24255e-09
-2.21479e-09
1.04679e-08
-2.22536e-09
1.25775e-08
-2.10958e-09
1.44703e-08
-1.89284e-09
1.60745e-08
-1.6042e-09
1.7348e-08
-1.27344e-09
1.82764e-08
-9.28403e-10
1.88694e-08
-5.92986e-10
1.9155e-08
-2.856e-10
1.91711e-08
-1.61001e-11
1.89645e-08
2.06526e-10
1.85754e-08
3.89092e-10
1.80371e-08
5.38352e-10
1.73694e-08
6.67648e-10
1.6576e-08
7.93438e-10
1.56428e-08
9.33254e-10
1.45389e-08
1.10387e-09
1.32193e-08
1.31957e-09
1.16286e-08
1.59068e-09
9.70569e-09
1.92295e-09
7.38707e-09
2.31862e-09
4.61043e-09
2.77665e-09
1.31735e-09
3.29308e-09
-2.54585e-09
3.86319e-09
-7.02649e-09
4.48064e-09
-1.21625e-08
5.13599e-09
-1.79811e-08
5.81859e-09
-2.44972e-08
6.51617e-09
-3.17116e-08
7.21432e-09
-3.96083e-08
7.89674e-09
-4.81539e-08
8.54556e-09
-5.72959e-08
9.14203e-09
-6.69631e-08
9.66722e-09
-7.7066e-08
1.01029e-08
-8.74983e-08
1.04323e-08
-9.81393e-08
1.0641e-08
-1.08857e-07
1.07177e-08
-1.19512e-07
1.06546e-08
-1.29959e-07
1.04475e-08
-1.40056e-07
1.00966e-08
-1.49661e-07
9.60559e-09
-1.58643e-07
8.98196e-09
-1.66879e-07
8.23616e-09
-1.74261e-07
7.38115e-09
-1.80692e-07
6.43165e-09
-1.86096e-07
5.40334e-09
-1.90408e-07
4.31252e-09
-1.93585e-07
3.17641e-09
-1.95597e-07
2.01243e-09
-1.9643e-07
8.33538e-10
-1.96088e-07
-3.42716e-10
-1.94579e-07
-1.50905e-09
-1.91945e-07
-2.63352e-09
-1.88235e-07
-3.70976e-09
-1.8351e-07
-4.72545e-09
-1.77841e-07
-5.66945e-09
-1.71309e-07
-6.53157e-09
-1.64006e-07
-7.30254e-09
-1.56032e-07
-7.97415e-09
-1.47493e-07
-8.53938e-09
-1.385e-07
-8.99271e-09
-1.2917e-07
-9.33025e-09
-1.1962e-07
-9.5501e-09
-1.09967e-07
-9.6524e-09
-1.00328e-07
-9.6396e-09
-9.08115e-08
-9.51634e-09
-8.1522e-08
-9.2895e-09
-7.25541e-08
-8.96791e-09
-6.39919e-08
-8.56217e-09
-5.59077e-08
-8.08424e-09
-4.83606e-08
-7.54702e-09
-4.13967e-08
-6.96396e-09
-3.50481e-08
-6.34856e-09
-2.93341e-08
-5.71402e-09
-2.42613e-08
-5.0728e-09
-1.9825e-08
-4.43634e-09
-1.60101e-08
-3.81485e-09
-1.27931e-08
-3.21706e-09
-1.01429e-08
-2.6502e-09
-8.02295e-09
-2.11991e-09
-6.39262e-09
-1.63033e-09
-5.20848e-09
-1.18414e-09
-4.4258e-09
-7.82683e-10
-3.99964e-09
-4.26159e-10
-3.88576e-09
-1.13874e-10
-4.04159e-09
1.55823e-10
-4.42748e-09
3.85889e-10
-5.00608e-09
5.78606e-10
-5.74376e-09
7.37673e-10
-6.60998e-09
8.66228e-10
-7.57739e-09
9.67405e-10
-8.62167e-09
1.04428e-09
-9.72146e-09
1.09979e-09
-1.08581e-08
1.13663e-09
-1.20154e-08
1.15731e-09
-1.31795e-08
1.16406e-09
-1.43383e-08
1.15888e-09
-1.54818e-08
1.14352e-09
-1.66013e-08
1.11951e-09
-1.76896e-08
1.0882e-09
-1.87404e-08
1.05081e-09
-1.97488e-08
1.0084e-09
-2.07107e-08
9.61929e-10
-2.1623e-08
9.1226e-10
-2.24831e-08
8.60174e-10
-2.32895e-08
8.06386e-10
-2.40411e-08
7.51545e-10
-2.47373e-08
6.96249e-10
-2.53783e-08
6.41033e-10
-2.59647e-08
5.86381e-10
-2.64974e-08
5.32719e-10
-2.69779e-08
4.8042e-10
-2.74077e-08
4.29802e-10
-2.77888e-08
3.81139e-10
-2.81235e-08
3.34655e-10
-2.8414e-08
2.90535e-10
-2.86629e-08
2.48916e-10
-2.88728e-08
2.09899e-10
-2.90463e-08
1.7354e-10
-2.91862e-08
1.39861e-10
-2.92951e-08
1.08852e-10
-2.93755e-08
8.0469e-11
-2.94302e-08
5.46476e-11
-2.94615e-08
3.12955e-11
-2.94723e-08
1.08341e-11
-2.94643e-08
-8.04453e-12
-2.94394e-08
-2.48811e-11
-2.94001e-08
-3.9303e-11
-2.93482e-08
-5.19129e-11
-2.92853e-08
-6.28219e-11
-2.92132e-08
-7.21582e-11
-2.91331e-08
-8.00666e-11
-2.90464e-08
-8.66821e-11
-2.89543e-08
-9.21454e-11
-2.88577e-08
-9.6589e-11
-2.87576e-08
-1.00136e-10
-2.86547e-08
-1.02896e-10
-2.85497e-08
-1.04976e-10
-2.84432e-08
-1.06468e-10
-2.83358e-08
-1.0746e-10
-2.82277e-08
-1.08034e-10
-2.81195e-08
-1.08262e-10
-2.80113e-08
-1.08213e-10
-2.79033e-08
-1.07945e-10
-2.77958e-08
-1.07511e-10
-2.76888e-08
-1.06955e-10
-2.75825e-08
-1.06316e-10
-2.74769e-08
-1.05628e-10
-2.7372e-08
-1.04921e-10
-2.72678e-08
-1.04219e-10
-2.71642e-08
-1.03543e-10
-2.70613e-08
-1.02909e-10
-2.6959e-08
-1.0233e-10
-2.68572e-08
-1.01818e-10
-2.67558e-08
-1.01381e-10
-2.66547e-08
-1.01028e-10
-2.6554e-08
-1.00765e-10
-2.64534e-08
-1.00599e-10
-2.63529e-08
-1.00533e-10
-2.62523e-08
-1.00572e-10
-2.61516e-08
-1.00719e-10
-2.60506e-08
-1.00969e-10
-2.59493e-08
-1.01301e-10
-2.58476e-08
-1.01663e-10
-2.57457e-08
-1.01921e-10
-2.56439e-08
-1.01774e-10
-2.55434e-08
-1.00557e-10
-2.54465e-08
-9.68423e-11
-2.53583e-08
-8.82597e-11
-2.52844e-08
-7.38821e-11
-2.52214e-08
-6.30348e-11
-2.51336e-08
-8.77847e-11
-2.49058e-08
-2.27782e-10
-2.41399e-08
-7.65851e-10
-2.70296e-09
-2.1437e-08
7.51709e-10
-9.29121e-10
2.7374e-09
-2.7244e-09
5.72491e-09
-4.28769e-09
9.46249e-09
-5.48953e-09
1.3676e-08
-6.27301e-09
1.80895e-08
-6.62833e-09
2.24436e-08
-6.57944e-09
2.65089e-08
-6.1749e-09
3.00961e-08
-5.47996e-09
3.30608e-08
-4.569e-09
3.53059e-08
-3.51851e-09
3.67784e-08
-2.40087e-09
3.74644e-08
-1.27895e-09
3.73807e-08
-2.01912e-10
3.65657e-08
7.98819e-10
3.50624e-08
1.70987e-09
3.29142e-08
2.5373e-09
3.01487e-08
3.30387e-09
2.67698e-08
4.04652e-09
2.27519e-08
4.81137e-09
1.80379e-08
5.64727e-09
1.25412e-08
6.60055e-09
6.15124e-09
7.7095e-09
-1.25838e-09
9.00029e-09
-9.82123e-09
1.04858e-08
-1.9667e-08
1.21644e-08
-3.09117e-08
1.40214e-08
-4.36512e-08
1.60326e-08
-5.7953e-08
1.8165e-08
-7.38498e-08
2.03775e-08
-9.13353e-08
2.26215e-08
-1.10358e-07
2.48418e-08
-1.3082e-07
2.69781e-08
-1.52573e-07
2.89667e-08
-1.75419e-07
3.07433e-08
-1.9912e-07
3.22463e-08
-2.23398e-07
3.34201e-08
-2.47949e-07
3.42177e-08
-2.72449e-07
3.46035e-08
-2.96572e-07
3.45546e-08
-3.19992e-07
3.40613e-08
-3.42401e-07
3.31269e-08
-3.63513e-07
3.17669e-08
-3.83073e-07
3.00068e-08
-4.00857e-07
2.78812e-08
-4.16682e-07
2.54307e-08
-4.30401e-07
2.27005e-08
-4.41903e-07
1.97381e-08
-4.51113e-07
1.65918e-08
-4.57991e-07
1.33093e-08
-4.62524e-07
9.93624e-09
-4.64728e-07
6.51604e-09
-4.64638e-07
3.08724e-09
-4.62313e-07
-3.12705e-10
-4.57841e-07
-3.63879e-09
-4.51331e-07
-6.85218e-09
-4.42908e-07
-9.93258e-09
-4.32685e-07
-1.28562e-08
-4.20793e-07
-1.56018e-08
-4.07369e-07
-1.81494e-08
-3.92559e-07
-2.048e-08
-3.76514e-07
-2.25759e-08
-3.59396e-07
-2.44208e-08
-3.4137e-07
-2.59999e-08
-3.22609e-07
-2.73006e-08
-3.03289e-07
-2.83131e-08
-2.83588e-07
-2.90307e-08
-2.63688e-07
-2.94505e-08
-2.43766e-07
-2.95742e-08
-2.23998e-07
-2.94077e-08
-2.04552e-07
-2.89621e-08
-1.85589e-07
-2.82529e-08
-1.67257e-07
-2.73002e-08
-1.49691e-07
-2.6128e-08
-1.33011e-07
-2.47637e-08
-1.17321e-07
-2.32371e-08
-1.02705e-07
-2.15798e-08
-8.923e-08
-1.9824e-08
-7.69419e-08
-1.80021e-08
-6.58695e-08
-1.61452e-08
-5.60226e-08
-1.42833e-08
-4.73936e-08
-1.24438e-08
-3.99593e-08
-1.06514e-08
-3.36817e-08
-8.9278e-09
-2.85104e-08
-7.29126e-09
-2.43842e-08
-5.75647e-09
-2.12337e-08
-4.33462e-09
-1.8983e-08
-3.03346e-09
-1.75516e-08
-1.85748e-09
-1.68572e-08
-8.08272e-10
-1.68167e-08
1.15322e-10
-1.73483e-08
9.17401e-10
-1.83734e-08
1.60371e-09
-1.98176e-08
2.18188e-09
-2.16111e-08
2.65973e-09
-2.36892e-08
3.04553e-09
-2.59927e-08
3.3478e-09
-2.8468e-08
3.57508e-09
-3.1067e-08
3.7356e-09
-3.37469e-08
3.83723e-09
-3.64702e-08
3.88736e-09
-3.92041e-08
3.89274e-09
-4.192e-08
3.8595e-09
-4.45938e-08
3.79321e-09
-4.72044e-08
3.69888e-09
-4.97347e-08
3.58105e-09
-5.21701e-08
3.44381e-09
-5.4499e-08
3.29087e-09
-5.67123e-08
3.12554e-09
-5.8803e-08
2.95085e-09
-6.07661e-08
2.76951e-09
-6.25985e-08
2.58397e-09
-6.42987e-08
2.39646e-09
-6.58666e-08
2.20893e-09
-6.73034e-08
2.02314e-09
-6.86113e-08
1.84062e-09
-6.97935e-08
1.66268e-09
-7.08542e-08
1.49044e-09
-7.17979e-08
1.32483e-09
-7.26299e-08
1.16664e-09
-7.33558e-08
1.01645e-09
-7.39816e-08
8.74751e-10
-7.45136e-08
7.41841e-10
-7.49579e-08
6.17911e-10
-7.53211e-08
5.03031e-10
-7.56094e-08
3.97164e-10
-7.58291e-08
3.00185e-10
-7.59864e-08
2.11885e-10
-7.60871e-08
1.32025e-10
-7.61367e-08
6.04299e-11
-7.6141e-08
-3.73266e-12
-7.61051e-08
-6.08086e-11
-7.60335e-08
-1.10902e-10
-7.59307e-08
-1.54688e-10
-7.58009e-08
-1.92646e-10
-7.56478e-08
-2.25242e-10
-7.54749e-08
-2.5296e-10
-7.52853e-08
-2.76254e-10
-7.50819e-08
-2.95607e-10
-7.4867e-08
-3.11461e-10
-7.46429e-08
-3.24229e-10
-7.44115e-08
-3.34294e-10
-7.41745e-08
-3.42016e-10
-7.39332e-08
-3.47721e-10
-7.36889e-08
-3.51715e-10
-7.34427e-08
-3.54271e-10
-7.31953e-08
-3.55639e-10
-7.29475e-08
-3.56044e-10
-7.26998e-08
-3.55685e-10
-7.24525e-08
-3.54735e-10
-7.22062e-08
-3.53345e-10
-7.19608e-08
-3.51647e-10
-7.17167e-08
-3.49755e-10
-7.14738e-08
-3.47772e-10
-7.12323e-08
-3.45782e-10
-7.0992e-08
-3.43856e-10
-7.07528e-08
-3.42052e-10
-7.05147e-08
-3.40422e-10
-7.02775e-08
-3.39009e-10
-7.00411e-08
-3.37856e-10
-6.98051e-08
-3.37006e-10
-6.95694e-08
-3.36492e-10
-6.93336e-08
-3.3636e-10
-6.90975e-08
-3.36652e-10
-6.88606e-08
-3.37422e-10
-6.86226e-08
-3.38731e-10
-6.8383e-08
-3.40634e-10
-6.81411e-08
-3.43164e-10
-6.78965e-08
-3.46292e-10
-6.76486e-08
-3.49816e-10
-6.73972e-08
-3.53122e-10
-6.71431e-08
-3.54684e-10
-6.68885e-08
-3.51388e-10
-6.66376e-08
-3.3918e-10
-6.63914e-08
-3.20084e-10
-6.61279e-08
-3.26528e-10
-6.57375e-08
-4.7825e-10
-6.49084e-08
-1.05683e-09
-6.30828e-08
-2.59151e-09
-6.45373e-09
-5.9332e-08
1.05698e-09
-1.9861e-09
3.7188e-09
-5.38621e-09
7.5546e-09
-8.1235e-09
1.21744e-08
-1.01093e-08
1.72115e-08
-1.13102e-08
2.23255e-08
-1.17423e-08
2.72099e-08
-1.14638e-08
3.15995e-08
-1.05646e-08
3.52759e-08
-9.15637e-09
3.80689e-08
-7.36201e-09
3.98557e-08
-5.30526e-09
4.05566e-08
-3.10178e-09
4.01289e-08
-8.51272e-10
3.85565e-08
1.37052e-09
3.58394e-08
3.51595e-09
3.19812e-08
5.56799e-09
2.69778e-08
7.54074e-09
2.08057e-08
9.476e-09
1.3413e-08
1.14392e-08
4.71577e-09
1.35086e-08
-5.40153e-09
1.57646e-08
-1.7079e-08
1.8278e-08
-3.0469e-08
2.10995e-08
-4.57216e-08
2.42529e-08
-6.29693e-08
2.77335e-08
-8.23125e-08
3.15076e-08
-1.03807e-07
3.55156e-08
-1.2745e-07
3.96755e-08
-1.53172e-07
4.38872e-08
-1.80831e-07
4.80368e-08
-2.10211e-07
5.20011e-08
-2.41023e-07
5.56536e-08
-2.72915e-07
5.88708e-08
-3.05487e-07
6.15382e-08
-3.38301e-07
6.35572e-08
-3.70904e-07
6.48496e-08
-4.02845e-07
6.53614e-08
-4.33692e-07
6.50642e-08
-4.63044e-07
6.39553e-08
-4.90545e-07
6.20557e-08
-5.15891e-07
5.94075e-08
-5.38834e-07
5.60697e-08
-5.59181e-07
5.21141e-08
-5.76796e-07
4.76214e-08
-5.91592e-07
4.26771e-08
-6.03529e-07
3.73678e-08
-6.12607e-07
3.17788e-08
-6.1886e-07
2.59915e-08
-6.22351e-07
2.00823e-08
-6.23163e-07
1.41214e-08
-6.21399e-07
8.1721e-09
-6.17173e-07
2.29062e-09
-6.10622e-07
-3.46413e-09
-6.01897e-07
-9.03727e-09
-5.91137e-07
-1.4399e-08
-5.78465e-07
-1.95243e-08
-5.64012e-07
-2.43853e-08
-5.47913e-07
-2.89556e-08
-5.30305e-07
-3.32102e-08
-5.11329e-07
-3.71251e-08
-4.91132e-07
-4.06769e-08
-4.69865e-07
-4.3843e-08
-4.47684e-07
-4.66019e-08
-4.2475e-07
-4.89338e-08
-4.01229e-07
-5.08211e-08
-3.77292e-07
-5.22501e-08
-3.53112e-07
-5.32111e-08
-3.28862e-07
-5.37001e-08
-3.04717e-07
-5.37191e-08
-2.80848e-07
-5.3277e-08
-2.5742e-07
-5.239e-08
-2.34592e-07
-5.10809e-08
-2.12513e-07
-4.93795e-08
-1.9132e-07
-4.73215e-08
-1.71136e-07
-4.49476e-08
-1.5207e-07
-4.23026e-08
-1.34216e-07
-3.94342e-08
-1.17648e-07
-3.63915e-08
-1.02426e-07
-3.32241e-08
-8.85906e-08
-2.9981e-08
-7.61645e-08
-2.67094e-08
-6.51543e-08
-2.3454e-08
-5.55498e-08
-2.02559e-08
-4.73252e-08
-1.71524e-08
-4.044e-08
-1.41764e-08
-3.48408e-08
-1.13557e-08
-3.04622e-08
-8.71316e-09
-2.72293e-08
-6.26644e-09
-2.50587e-08
-4.02805e-09
-2.38613e-08
-2.00563e-09
-2.35439e-08
-2.0215e-10
-2.40113e-08
1.38479e-09
-2.51678e-08
2.76025e-09
-2.6921e-08
3.93508e-09
-2.9181e-08
4.91973e-09
-3.18623e-08
5.72686e-09
-3.48848e-08
6.37028e-09
-3.81741e-08
6.86439e-09
-4.16623e-08
7.22377e-09
-4.52878e-08
7.46279e-09
-4.89958e-08
7.59537e-09
-5.27377e-08
7.63464e-09
-5.6471e-08
7.5928e-09
-6.0159e-08
7.48114e-09
-6.37701e-08
7.31002e-09
-6.7278e-08
7.08898e-09
-7.06609e-08
6.82669e-09
-7.39011e-08
6.53102e-09
-7.69846e-08
6.20908e-09
-7.9901e-08
5.86727e-09
-8.26429e-08
5.51136e-09
-8.52054e-08
5.14652e-09
-8.75863e-08
4.77737e-09
-8.97854e-08
4.408e-09
-9.18042e-08
4.04198e-09
-9.3646e-08
3.68241e-09
-9.53153e-08
3.33195e-09
-9.68177e-08
2.99284e-09
-9.81598e-08
2.66692e-09
-9.93489e-08
2.3557e-09
-1.00393e-07
2.06035e-09
-1.013e-07
1.78176e-09
-1.02078e-07
1.52051e-09
-1.02737e-07
1.27694e-09
-1.03286e-07
1.05117e-09
-1.03732e-07
8.43103e-10
-1.04084e-07
6.52486e-10
-1.04351e-07
4.78906e-10
-1.04541e-07
3.21844e-10
-1.04661e-07
1.80669e-10
-1.04719e-07
5.44507e-11
-1.04722e-07
-5.78932e-11
-1.04676e-07
-1.56632e-10
-1.04588e-07
-2.43142e-10
-1.04462e-07
-3.18264e-10
-1.04305e-07
-3.82916e-10
-1.04119e-07
-4.3801e-10
-1.03911e-07
-4.84443e-10
-1.03684e-07
-5.23152e-10
-1.0344e-07
-5.54994e-10
-1.03184e-07
-5.80773e-10
-1.02917e-07
-6.01241e-10
-1.02642e-07
-6.17096e-10
-1.0236e-07
-6.28984e-10
-1.02075e-07
-6.37498e-10
-1.01786e-07
-6.43172e-10
-1.01495e-07
-6.46494e-10
-1.01203e-07
-6.47902e-10
-1.00911e-07
-6.47782e-10
-1.00619e-07
-6.46473e-10
-1.00328e-07
-6.44265e-10
-1.00038e-07
-6.41416e-10
-9.97501e-08
-6.38158e-10
-9.94632e-08
-6.34685e-10
-9.91778e-08
-6.31166e-10
-9.88939e-08
-6.27743e-10
-9.86114e-08
-6.24538e-10
-9.83302e-08
-6.21654e-10
-9.805e-08
-6.1919e-10
-9.77706e-08
-6.17241e-10
-9.74917e-08
-6.15903e-10
-9.72129e-08
-6.15274e-10
-9.69338e-08
-6.15465e-10
-9.66539e-08
-6.16604e-10
-9.63724e-08
-6.18851e-10
-9.60888e-08
-6.22401e-10
-9.58019e-08
-6.27473e-10
-9.55108e-08
-6.3429e-10
-9.52141e-08
-6.43041e-10
-9.49102e-08
-6.53718e-10
-9.45975e-08
-6.65815e-10
-9.42745e-08
-6.77691e-10
-9.39397e-08
-6.86114e-10
-9.35902e-08
-6.88685e-10
-9.32138e-08
-6.965e-10
-9.2764e-08
-7.76351e-10
-9.20913e-08
-1.15088e-09
-9.08736e-08
-2.27455e-09
-8.87355e-08
-4.7296e-09
-9.75435e-09
-8.54349e-08
1.15141e-09
-3.13752e-09
3.98836e-09
-8.22316e-09
7.96568e-09
-1.21008e-08
1.25979e-08
-1.47415e-08
1.74536e-08
-1.61658e-08
2.21541e-08
-1.64429e-08
2.63748e-08
-1.56844e-08
2.98447e-08
-1.40345e-08
3.23452e-08
-1.16568e-08
3.37052e-08
-8.72206e-09
3.37963e-08
-5.39637e-09
3.25253e-08
-1.8307e-09
2.98233e-08
1.8507e-09
2.56364e-08
5.55741e-09
1.99166e-08
9.23571e-09
1.26091e-08
1.28755e-08
3.6425e-09
1.65074e-08
-7.07879e-09
2.01973e-08
-1.96759e-08
2.40363e-08
-3.42907e-08
2.81234e-08
-5.10747e-08
3.25486e-08
-7.01729e-08
3.73763e-08
-9.1705e-08
4.26316e-08
-1.15745e-07
4.82931e-08
-1.42303e-07
5.42917e-08
-1.7131e-07
6.05147e-08
-2.02608e-07
6.68135e-08
-2.35946e-07
7.30129e-08
-2.70981e-07
7.89227e-08
-3.07293e-07
8.43483e-08
-3.44394e-07
8.91023e-08
-3.81756e-07
9.30156e-08
-4.18831e-07
9.59459e-08
-4.55079e-07
9.77858e-08
-4.89988e-07
9.84662e-08
-5.23096e-07
9.79581e-08
-5.54006e-07
9.62709e-08
-5.8239e-07
9.34486e-08
-6.07999e-07
8.95644e-08
-6.30657e-07
8.4714e-08
-6.50259e-07
7.9009e-08
-6.6676e-07
7.25705e-08
-6.80169e-07
6.55231e-08
-6.90538e-07
5.79904e-08
-6.97952e-07
5.0091e-08
-7.0252e-07
4.19361e-08
-7.04368e-07
3.36274e-08
-7.03634e-07
2.52568e-08
-7.00457e-07
1.69055e-08
-6.94981e-07
8.64542e-09
-6.87349e-07
5.40264e-10
-6.7771e-07
-7.34824e-09
-6.66198e-07
-1.49765e-08
-6.52918e-07
-2.23173e-08
-6.37974e-07
-2.93428e-08
-6.21476e-07
-3.60224e-08
-6.03533e-07
-4.23278e-08
-5.84258e-07
-4.82315e-08
-5.63761e-07
-5.37063e-08
-5.42161e-07
-5.87251e-08
-5.19579e-07
-6.32598e-08
-4.96139e-07
-6.72823e-08
-4.71976e-07
-7.07648e-08
-4.47229e-07
-7.36806e-08
-4.22045e-07
-7.60058e-08
-3.96574e-07
-7.77206e-08
-3.70975e-07
-7.88108e-08
-3.45405e-07
-7.92693e-08
-3.20027e-07
-7.90974e-08
-2.94999e-07
-7.83055e-08
-2.70475e-07
-7.69139e-08
-2.46604e-07
-7.49519e-08
-2.23525e-07
-7.24584e-08
-2.01366e-07
-6.94797e-08
-1.80245e-07
-6.60693e-08
-1.60262e-07
-6.22857e-08
-1.41505e-07
-5.81912e-08
-1.24046e-07
-5.385e-08
-1.07943e-07
-4.93272e-08
-9.32369e-08
-4.46871e-08
-7.99544e-08
-3.99919e-08
-6.81074e-08
-3.5301e-08
-5.76933e-08
-3.067e-08
-4.86957e-08
-2.615e-08
-4.1085e-08
-2.17871e-08
-3.48191e-08
-1.76216e-08
-2.9844e-08
-1.36882e-08
-2.60955e-08
-1.0015e-08
-2.34995e-08
-6.62405e-09
-2.19741e-08
-3.53102e-09
-2.14308e-08
-7.45445e-10
-2.17763e-08
1.73033e-09
-2.29146e-08
3.89856e-09
-2.47491e-08
5.76954e-09
-2.7184e-08
7.35462e-09
-3.0126e-08
8.66889e-09
-3.34857e-08
9.72993e-09
-3.71783e-08
1.0557e-08
-4.1125e-08
1.11705e-08
-4.52532e-08
1.1591e-08
-4.94974e-08
1.18395e-08
-5.37988e-08
1.1936e-08
-5.81056e-08
1.18996e-08
-6.23725e-08