/*--------------------------------*- C++ -*----------------------------------*\
  =========                 |
  \\      /  F ield         | OpenFOAM: The Open Source CFD Toolbox
   \\    /   O peration     | Website:  https://openfoam.org
    \\  /    A nd           | Version:  8
     \\/     M anipulation  |
\*---------------------------------------------------------------------------*/
FoamFile
{
    version     2.0;
    format      ascii;
    class       volVectorField;
    location    "0.3";
    object      U;
}
// * * * * * * * * * * * * * * * * * * * * * * * * * * * * * * * * * * * * * //

dimensions      [0 1 -1 0 0 0 0];

internalField   nonuniform List<vector> 
12225
(
(-5.2533e-05 1.34823e-05 0)
(-0.00122411 1.63431e-05 0)
(-0.00214164 3.4331e-05 0)
(-0.00311468 2.15464e-05 0)
(-0.00383701 2.00749e-05 0)
(-0.00444914 1.45834e-05 0)
(-0.00492492 9.56707e-06 0)
(-0.0052629 2.64863e-06 0)
(-0.00542549 -8.16177e-06 0)
(-0.00533738 -2.57807e-05 0)
(-0.0048834 -5.33316e-05 0)
(-0.00393121 -9.14865e-05 0)
(-0.00238909 -0.000136515 0)
(-0.000284032 -0.000180275 0)
(0.00215278 -0.000205559 0)
(0.00450392 -0.000170807 0)
(0.00606511 -0.000142582 0)
(-0.00308203 0.00627993 0)
(-6.58668e-05 0.000291204 0)
(-0.00343878 0.000450613 0)
(-0.00614169 0.000469225 0)
(-0.00900833 0.000401586 0)
(-0.011252 0.000346869 0)
(-0.0131691 0.000289946 0)
(-0.0147027 0.000228185 0)
(-0.0158374 0.000147678 0)
(-0.0164725 2.73565e-05 0)
(-0.0164134 -0.000161056 0)
(-0.0153763 -0.000443927 0)
(-0.0130543 -0.000823596 0)
(-0.00927446 -0.00125321 0)
(-0.00420769 -0.00161949 0)
(0.00139958 -0.00172864 0)
(0.00610691 -0.00118004 0)
(0.00746429 0.0014062 0)
(-0.00991612 0.0160712 0)
(-1.39372e-05 0.00081302 0)
(-0.00523575 0.0013356 0)
(-0.0095921 0.00138014 0)
(-0.0142621 0.0012344 0)
(-0.0180642 0.00107937 0)
(-0.0213527 0.000920839 0)
(-0.0240431 0.00074338 0)
(-0.0260968 0.000512106 0)
(-0.02736 0.000171132 0)
(-0.0275487 -0.000351331 0)
(-0.0262679 -0.00111555 0)
(-0.0231188 -0.00211218 0)
(-0.0179372 -0.00319382 0)
(-0.011108 -0.00402565 0)
(-0.00390557 -0.00404435 0)
(0.00128536 -0.00219313 0)
(0.000555359 0.0045075 0)
(-0.0194965 0.0273151 0)
(0.000136926 0.00156093 0)
(-0.00632594 0.00267421 0)
(-0.0120103 0.00279696 0)
(-0.0182649 0.0025774 0)
(-0.0235568 0.00228743 0)
(-0.0282103 0.00198235 0)
(-0.0321018 0.00163125 0)
(-0.0351606 0.00117076 0)
(-0.0371903 0.000497429 0)
(-0.0378496 -0.000516869 0)
(-0.036692 -0.00196973 0)
(-0.0333041 -0.00381811 0)
(-0.0276019 -0.00574933 0)
(-0.0202075 -0.00708951 0)
(-0.012824 -0.00673529 0)
(-0.00840981 -0.00279339 0)
(-0.0113818 0.00896492 0)
(-0.0306515 0.0388145 0)
(0.000372195 0.00243251 0)
(-0.00661056 0.00437732 0)
(-0.0131258 0.00468759 0)
(-0.0206085 0.00443806 0)
(-0.0272001 0.004007 0)
(-0.0331202 0.00352586 0)
(-0.0381864 0.00295455 0)
(-0.0422868 0.00219805 0)
(-0.0451936 0.00109927 0)
(-0.0465424 -0.000529975 0)
(-0.0458911 -0.00281705 0)
(-0.0428789 -0.00565719 0)
(-0.0375427 -0.00851364 0)
(-0.0307063 -0.0102866 0)
(-0.0243075 -0.0092432 0)
(-0.0214145 -0.00269988 0)
(-0.0260227 0.0140504 0)
(-0.0426353 0.0490556 0)
(0.000651855 0.00332344 0)
(-0.00616456 0.00628945 0)
(-0.0128979 0.00695398 0)
(-0.0211198 0.00676882 0)
(-0.0286887 0.00623202 0)
(-0.0356673 0.00557262 0)
(-0.0417942 0.00475593 0)
(-0.0469073 0.00365844 0)
(-0.0507599 0.00207139 0)
(-0.052998 -0.000247321 0)
(-0.0532307 -0.00343826 0)
(-0.0511999 -0.00730578 0)
(-0.047068 -0.0110488 0)
(-0.0417713 -0.0131039 0)
(-0.0372362 -0.0111223 0)
(-0.0362102 -0.00185465 0)
(-0.041673 0.0191728 0)
(-0.0548743 0.0574431 0)
(0.000940623 0.0041269 0)
(-0.00514546 0.00823137 0)
(-0.0114458 0.00944932 0)
(-0.0198158 0.00947257 0)
(-0.0279151 0.00891316 0)
(-0.0356285 0.00811059 0)
(-0.0426022 0.00705516 0)
(-0.0486192 0.00560536 0)
(-0.0534257 0.00351155 0)
(-0.0567084 0.00049281 0)
(-0.0581622 -0.00358205 0)
(-0.057656 -0.00840403 0)
(-0.0554505 -0.0128982 0)
(-0.0524688 -0.0150615 0)
(-0.0503789 -0.0120366 0)
(-0.0512885 -0.000307274 0)
(-0.0569514 0.023925 0)
(-0.0666843 0.0637962 0)
(0.00121134 0.00473945 0)
(-0.00376911 0.0100207 0)
(-0.00904009 0.0119784 0)
(-0.0169199 0.0123895 0)
(-0.0250061 0.01194 0)
(-0.0330225 0.0110753 0)
(-0.0405265 0.00983084 0)
(-0.0472466 0.00806434 0)
(-0.0529349 0.00550465 0)
(-0.0573406 0.00185475 0)
(-0.0602662 -0.00298433 0)
(-0.0617 -0.00858064 0)
(-0.0619539 -0.0136146 0)
(-0.0618032 -0.0157299 0)
(-0.0624588 -0.0117357 0)
(-0.06522 0.00187588 0)
(-0.0706988 0.0280683 0)
(-0.0773374 0.0681184 0)
(0.00145019 0.00509556 0)
(-0.002273 0.0114811 0)
(-0.00607176 0.0143123 0)
(-0.012852 0.0153022 0)
(-0.0203354 0.0151364 0)
(-0.0281428 0.0143395 0)
(-0.0357664 0.0130071 0)
(-0.0428926 0.0110175 0)
(-0.0492905 0.00810396 0)
(-0.0547856 0.003981 0)
(-0.0592941 -0.00140181 0)
(-0.0628894 -0.00749562 0)
(-0.0658791 -0.0128045 0)
(-0.0687836 -0.014758 0)
(-0.0722426 -0.0100334 0)
(-0.0767242 0.00467123 0)
(-0.0819393 0.0315377 0)
(-0.0861215 0.0705591 0)
(0.00164135 0.00519845 0)
(-0.000898665 0.0124668 0)
(-0.00299989 0.0162142 0)
(-0.00818912 0.0179579 0)
(-0.0145092 0.0182682 0)
(-0.0215649 0.0177097 0)
(-0.0288309 0.0164422 0)
(-0.0359766 0.0143849 0)
(-0.0428001 0.0113043 0)
(-0.0492057 0.00695414 0)
(-0.0552116 0.00134258 0)
(-0.0609496 -0.00489866 0)
(-0.0666494 -0.0101862 0)
(-0.0725314 -0.0119045 0)
(-0.0786542 -0.00679543 0)
(-0.0847324 0.00812855 0)
(-0.0898582 0.0344473 0)
(-0.0923704 0.0714194 0)
(0.00175731 0.00505994 0)
(0.000133678 0.0128859 0)
(-0.000281753 0.0174946 0)
(-0.00358897 0.0201004 0)
(-0.00830635 0.0210633 0)
(-0.0141088 0.0209357 0)
(-0.0205226 0.0199284 0)
(-0.0272378 0.018015 0)
(-0.0340951 0.0150201 0)
(-0.0410716 0.0107613 0)
(-0.0482667 0.00530658 0)
(-0.0558437 -0.000679116 0)
(-0.0639151 -0.00563157 0)
(-0.0724046 -0.00705305 0)
(-0.0808764 -0.00192612 0)
(-0.0884298 0.0123942 0)
(-0.0937926 0.0370943 0)
(-0.0954747 0.0711545 0)
(0.00184223 0.00480253 0)
(0.000811791 0.0128274 0)
(0.00173498 0.0180499 0)
(0.000179478 0.0214262 0)
(-0.00285259 0.0230837 0)
(-0.00716218 0.0235041 0)
(-0.0123906 0.0229193 0)
(-0.0182886 0.021354 0)
(-0.0247483 0.0186998 0)
(-0.0318044 0.014846 0)
(-0.0396058 0.00991111 0)
(-0.0483203 0.00454716 0)
(-0.057977 0.000200269 0)
(-0.068272 -0.000866955 0)
(-0.0784244 0.00403626 0)
(-0.0872006 0.0172236 0)
(-0.093117 0.0396854 0)
(-0.0947943 0.0704571 0)
(0.00194387 0.0043634 0)
(0.00124726 0.0123607 0)
(0.00320741 0.0180175 0)
(0.00324306 0.0220755 0)
(0.00190009 0.0244581 0)
(-0.000772847 0.0255251 0)
(-0.00456951 0.025507 0)
(-0.0093314 0.0244747 0)
(-0.0150164 0.0223895 0)
(-0.0217088 0.0192146 0)
(-0.029585 0.0151096 0)
(-0.0388049 0.0106814 0)
(-0.0493294 0.00719735 0)
(-0.0607159 0.00660208 0)
(-0.0719907 0.0111959 0)
(-0.0817271 0.0229624 0)
(-0.0883415 0.0427839 0)
(-0.0905673 0.0699235 0)
(0.00209034 0.00379298 0)
(0.00153669 0.011432 0)
(0.00425577 0.0173374 0)
(0.00574163 0.0219635 0)
(0.0061241 0.0251071 0)
(0.00529744 0.0269614 0)
(0.00328269 0.0277249 0)
(0.000105867 0.0275033 0)
(-0.00427172 0.0263272 0)
(-0.00997812 0.0242385 0)
(-0.0172029 0.0214296 0)
(-0.0260897 0.0184243 0)
(-0.0365611 0.0162343 0)
(-0.048128 0.0163777 0)
(-0.0597786 0.0206588 0)
(-0.0700679 0.0306798 0)
(-0.0774212 0.047255 0)
(-0.0806585 0.0699945 0)
(0.00217651 0.00307753 0)
(0.00147821 0.010009 0)
(0.00452698 0.0159029 0)
(0.00704093 0.020848 0)
(0.00887891 0.024635 0)
(0.00981522 0.0273083 0)
(0.00970743 0.0290032 0)
(0.00844162 0.0298393 0)
(0.0058885 0.0299062 0)
(0.00188188 0.0293098 0)
(-0.00376197 0.0282539 0)
(-0.0111634 0.0271522 0)
(-0.0202434 0.0267241 0)
(-0.0305767 0.0280058 0)
(-0.0412932 0.032235 0)
(-0.051139 0.0405655 0)
(-0.058711 0.0537034 0)
(-0.0629556 0.0716138 0)
(0.00216824 0.00231273 0)
(0.00107083 0.00829175 0)
(0.00398797 0.0138282 0)
(0.00691517 0.0187205 0)
(0.00964112 0.0228376 0)
(0.0118897 0.0261535 0)
(0.0134342 0.0287411 0)
(0.0140651 0.0307114 0)
(0.0135884 0.032182 0)
(0.0118232 0.0332913 0)
(0.00860984 0.0342373 0)
(0.00385528 0.0353201 0)
(-0.00238745 0.0369788 0)
(-0.00982803 0.0397983 0)
(-0.0178578 0.0444757 0)
(-0.0255922 0.0516827 0)
(-0.0319782 0.0619057 0)
(-0.0362327 0.0753028 0)
(0.0021029 0.0016255 0)
(0.000502644 0.00657777 0)
(0.00297561 0.011418 0)
(0.00578125 0.0158548 0)
(0.00877078 0.0198617 0)
(0.011679 0.0234301 0)
(0.0142935 0.0266058 0)
(0.0163983 0.0294831 0)
(0.0177927 0.0321775 0)
(0.0183135 0.034822 0)
(0.0178434 0.0375776 0)
(0.0163273 0.0406415 0)
(0.0138044 0.0442481 0)
(0.0104427 0.0486632 0)
(0.0065721 0.0541684 0)
(0.00267955 0.0610271 0)
(-0.000610677 0.0694466 0)
(-0.00290941 0.0795541 0)
(0.00204631 0.00114222 0)
(4.63485e-05 0.0050547 0)
(0.00208412 0.00894077 0)
(0.00462589 0.0125892 0)
(0.00758459 0.0160639 0)
(0.0107117 0.0194132 0)
(0.0138565 0.0226898 0)
(0.0168659 0.0259709 0)
(0.0195888 0.0293473 0)
(0.0219135 0.032917 0)
(0.0237778 0.0367847 0)
(0.025168 0.0410587 0)
(0.026123 0.0458424 0)
(0.0267393 0.0512241 0)
(0.0271759 0.0572684 0)
(0.0276447 0.0640108 0)
(0.0284392 0.0714621 0)
(0.0296348 0.0796349 0)
(0.00200632 0.000859412 0)
(-5.19633e-05 0.00360471 0)
(0.00200766 0.00625081 0)
(0.00469148 0.00882021 0)
(0.00789595 0.0114289 0)
(0.011355 0.0141601 0)
(0.0149564 0.0170704 0)
(0.0186098 0.020203 0)
(0.0222259 0.0235974 0)
(0.025751 0.0272943 0)
(0.029174 0.0313347 0)
(0.0325173 0.0357551 0)
(0.0358283 0.0405808 0)
(0.0391738 0.0458191 0)
(0.0426359 0.0514551 0)
(0.0463001 0.0574512 0)
(0.0503007 0.0637563 0)
(0.0545627 0.0703295 0)
(0.00203238 0.000423059 0)
(0.000503259 0.00174948 0)
(0.00330332 0.00295619 0)
(0.00678448 0.00437161 0)
(0.010685 0.00610853 0)
(0.0147422 0.00821418 0)
(0.0188678 0.0106928 0)
(0.0230085 0.0135175 0)
(0.0271257 0.0166595 0)
(0.0312155 0.0200997 0)
(0.0353054 0.0238272 0)
(0.0394414 0.0278333 0)
(0.0436789 0.032105 0)
(0.0480768 0.0366207 0)
(0.0526929 0.0413476 0)
(0.0575739 0.0462418 0)
(0.0628011 0.0512543 0)
(0.0682901 0.0563454 0)
(0.0021494 -0.000336471 0)
(0.00141693 -0.000571637 0)
(0.00502409 -0.000635736 0)
(0.00918524 -8.22408e-05 0)
(0.0134858 0.00111329 0)
(0.0177393 0.00289485 0)
(0.0219315 0.00516606 0)
(0.0260713 0.00782148 0)
(0.03018 0.0107776 0)
(0.0342972 0.013978 0)
(0.0384743 0.0173852 0)
(0.0427639 0.0209706 0)
(0.0472156 0.0247073 0)
(0.0518739 0.0285664 0)
(0.0567762 0.0325142 0)
(0.0619462 0.0365125 0)
(0.0674396 0.0405228 0)
(0.0731793 0.0445156 0)
(0.00228543 -0.00142346 0)
(0.00227691 -0.003365 0)
(0.0061768 -0.00434466 0)
(0.0101888 -0.004232 0)
(0.0139483 -0.00321115 0)
(0.0174755 -0.00149334 0)
(0.0208953 0.000715375 0)
(0.0243078 0.00325128 0)
(0.0277907 0.00600688 0)
(0.0314114 0.00891958 0)
(0.0352254 0.0119511 0)
(0.0392734 0.0150735 0)
(0.0435844 0.0182626 0)
(0.0481775 0.0214934 0)
(0.0530625 0.0247386 0)
(0.0582359 0.0279679 0)
(0.0637255 0.0311519 0)
(0.0694605 0.0342662 0)
(0.00230634 -0.00260992 0)
(0.00237159 -0.00594422 0)
(0.0054545 -0.00719262 0)
(0.00800959 -0.0070222 0)
(0.0100662 -0.00587868 0)
(0.0119233 -0.00411324 0)
(0.0138325 -0.00198757 0)
(0.0159476 0.000333724 0)
(0.0183606 0.00276441 0)
(0.0211261 0.00526247 0)
(0.024274 0.00780582 0)
(0.0278145 0.0103792 0)
(0.0317453 0.0129684 0)
(0.036055 0.0155573 0)
(0.0407242 0.0181273 0)
(0.0457228 0.0206571 0)
(0.0510515 0.0231245 0)
(0.0566432 0.0255071 0)
(0.00213159 -0.00351704 0)
(0.00124155 -0.00745883 0)
(0.00234841 -0.0083579 0)
(0.00246733 -0.00785056 0)
(0.00222607 -0.00655044 0)
(0.00208958 -0.00484723 0)
(0.00232581 -0.00297117 0)
(0.00305972 -0.00103147 0)
(0.00434337 0.000929603 0)
(0.00618911 0.00289878 0)
(0.00858522 0.00487141 0)
(0.0115071 0.00684455 0)
(0.0149227 0.008813 0)
(0.018795 0.0107684 0)
(0.0230828 0.0126991 0)
(0.0277379 0.0145912 0)
(0.0327401 0.0164284 0)
(0.0380258 0.0181879 0)
(0.00175625 -0.00384102 0)
(-0.000942207 -0.00742932 0)
(-0.00232191 -0.00776094 0)
(-0.00468606 -0.00696771 0)
(-0.00693425 -0.0056981 0)
(-0.00866512 -0.00425978 0)
(-0.00971233 -0.00279393 0)
(-0.0100317 -0.00134471 0)
(-0.00963486 8.20773e-05 0)
(-0.00855591 0.00149224 0)
(-0.00683865 0.00289205 0)
(-0.00453115 0.00428516 0)
(-0.00168295 0.00567141 0)
(0.00165611 0.00704708 0)
(0.00543442 0.00840551 0)
(0.00959574 0.00973776 0)
(0.0141086 0.0110326 0)
(0.0189149 0.0122668 0)
(0.00126534 -0.00348588 0)
(-0.0034041 -0.0060708 0)
(-0.00686153 -0.00597162 0)
(-0.0108589 -0.0051448 0)
(-0.0142432 -0.00412033 0)
(-0.0168036 -0.00307999 0)
(-0.0185143 -0.0020806 0)
(-0.0194128 -0.0011237 0)
(-0.0195581 -0.000197562 0)
(-0.0190144 0.000709405 0)
(-0.0178389 0.00160672 0)
(-0.0160868 0.00249976 0)
(-0.0138101 0.00339003 0)
(-0.0110595 0.00427598 0)
(-0.00788508 0.00515404 0)
(-0.00433993 0.00601953 0)
(-0.000459346 0.00686558 0)
(0.00371 0.0076714 0)
(0.000739965 -0.00258062 0)
(-0.00516585 -0.00407607 0)
(-0.00959933 -0.00379357 0)
(-0.0140443 -0.00316095 0)
(-0.0175833 -0.00248849 0)
(-0.0202145 -0.00185725 0)
(-0.0220147 -0.00127602 0)
(-0.0230668 -0.000731164 0)
(-0.0234482 -0.000208706 0)
(-0.0232268 0.000301263 0)
(-0.0224587 0.000806017 0)
(-0.0211921 0.00130998 0)
(-0.0194715 0.00181482 0)
(-0.0173383 0.00232003 0)
(-0.0148338 0.00282388 0)
(-0.0120018 0.00332468 0)
(-0.0088718 0.00381992 0)
(-0.00547953 0.00429329 0)
(0.000274395 -0.00147121 0)
(-0.00550635 -0.00214083 0)
(-0.00962746 -0.00190199 0)
(-0.0134669 -0.00154145 0)
(-0.0163967 -0.00119756 0)
(-0.0185493 -0.000893343 0)
(-0.020037 -0.000621461 0)
(-0.0209464 -0.000369959 0)
(-0.0213466 -0.000129633 0)
(-0.0212917 0.000105182 0)
(-0.0208249 0.000338357 0)
(-0.0199813 0.000572372 0)
(-0.0187924 0.000808287 0)
(-0.0172872 0.00104606 0)
(-0.0154941 0.00128504 0)
(-0.0134439 0.00152496 0)
(-0.0111562 0.00176698 0)
(-0.00864947 0.0020025 0)
(-2.41312e-05 -0.000565009 0)
(-0.00422328 -0.000747449 0)
(-0.00703238 -0.000645281 0)
(-0.00956794 -0.000508587 0)
(-0.0114411 -0.000391402 0)
(-0.0128094 -0.000292746 0)
(-0.0137624 -0.000206464 0)
(-0.0143608 -0.000127216 0)
(-0.0146494 -5.13279e-05 0)
(-0.0146605 2.32602e-05 0)
(-0.0144196 9.78341e-05 0)
(-0.0139465 0.000173282 0)
(-0.0132588 0.000250036 0)
(-0.0123722 0.000328103 0)
(-0.0113023 0.000407272 0)
(-0.0100663 0.000487609 0)
(-0.00867367 0.000571414 0)
(-0.007127 0.000657552 0)
(-0.000112385 -4.48144e-05 0)
(-0.0016949 -3.35647e-05 0)
(-0.00269478 -4.87447e-05 0)
(-0.00359969 -3.48946e-05 0)
(-0.00424598 -2.7824e-05 0)
(-0.00471853 -2.15505e-05 0)
(-0.00505109 -1.59259e-05 0)
(-0.00526516 -1.07326e-05 0)
(-0.00537568 -5.5862e-06 0)
(-0.00539275 -3.53612e-07 0)
(-0.00532407 5.0474e-06 0)
(-0.00517558 1.07003e-05 0)
(-0.0049523 1.66605e-05 0)
(-0.00465875 2.29256e-05 0)
(-0.00429943 2.95067e-05 0)
(-0.00387967 3.6295e-05 0)
(-0.00340157 4.36866e-05 0)
(-0.00285838 5.37112e-05 0)
(1.29912e-08 1.60051e-05 -1.9229e-21)
(0.000393444 -0.000183289 2.44769e-21)
(0.00129672 -0.000431806 0)
(0.00267185 -0.000640578 0)
(0.00439385 -0.000782645 0)
(0.00632294 -0.000853261 -2.43231e-21)
(0.00832449 -0.000857989 0)
(0.0102768 -0.000808409 0)
(0.0120779 -0.000719355 0)
(0.0136503 -0.000606729 0)
(0.014943 -0.000485792 2.44856e-21)
(0.0159312 -0.000369888 0)
(0.0166133 -0.000269574 0)
(0.0170066 -0.000192113 0)
(0.0171417 -0.000141085 0)
(0.0170572 -0.000116341 2.51103e-21)
(0.0167928 -0.000115746 0)
(0.0163824 -0.000134552 0)
(0.01585 -0.000166188 0)
(0.0152063 -0.000203301 0)
(0.0144466 -0.000238629 0)
(0.0135502 -0.000265586 0)
(0.0124824 -0.000278733 0)
(0.0111969 -0.000274236 2.68052e-21)
(0.00964048 -0.00025004 -2.71242e-21)
(0.00775593 -0.00020512 2.74799e-21)
(0.00548571 -0.000139059 2.78765e-21)
(0.00277431 -5.20598e-05 0)
(-0.000429721 5.55007e-05 0)
(-0.00417292 0.000183466 -2.89631e-21)
(-0.00849464 0.000332121 -2.91815e-21)
(-0.0134256 0.00050184 0)
(-0.0189864 0.00069261 0)
(-0.0251853 0.000903779 -2.97744e-21)
(-0.0320167 0.0011339 0)
(-0.0394597 0.00138056 0)
(-0.0474765 0.00164019 3.01729e-21)
(-0.0560121 0.00190796 0)
(-0.0649947 0.00217766 3.0259e-21)
(-0.074336 0.00244189 6.04638e-21)
(-0.0839337 0.00269223 0)
(-0.0936734 0.00291973 0)
(-0.103432 0.00311546 0)
(-0.113079 0.00327114 0)
(-0.122485 0.00337973 0)
(-0.13152 0.00343596 5.76593e-21)
(-0.140058 0.00343659 5.67372e-21)
(-0.147983 0.00338057 5.56838e-21)
(-0.155189 0.00326909 0)
(-0.16158 0.00310543 -5.31984e-21)
(-0.167078 0.00289467 0)
(-0.171615 0.00264285 5.02499e-21)
(-0.175142 0.00235562 4.86231e-21)
(-0.177622 0.00203694 0)
(-0.179035 0.00168991 0)
(-0.179374 0.00132312 0)
(-0.178639 0.000950237 4.12894e-21)
(-0.176855 0.000576459 0)
(-0.174061 0.0002092 0)
(-0.170305 -0.000145122 0)
(-0.165646 -0.000481003 0)
(-0.160152 -0.000793558 0)
(-0.1539 -0.00107847 0)
(-0.146978 -0.00133202 0)
(-0.139477 -0.00155113 0)
(-0.131498 -0.00173345 -2.41799e-21)
(-0.123145 -0.00187738 0)
(-0.114523 -0.00198222 0)
(-0.105742 -0.00204813 1.99234e-21)
(-0.0969082 -0.0020762 1.87802e-21)
(-0.0881259 -0.00206838 0)
(-0.079494 -0.00202747 -1.69469e-21)
(-0.0711048 -0.00195695 1.62607e-21)
(-0.0630414 -0.00186088 0)
(-0.055377 -0.00174368 -1.53372e-21)
(-0.0481734 -0.00160998 0)
(-0.0414802 -0.00146446 0)
(-0.0353347 -0.00131162 1.49595e-21)
(-0.0297619 -0.00115568 0)
(-0.0247749 -0.00100044 -1.52425e-21)
(-0.0203758 -0.000849205 0)
(-0.0165566 -0.000704727 1.58201e-21)
(-0.0133003 -0.000569184 1.61828e-21)
(-0.0105827 -0.000444182 1.65764e-21)
(-0.00837336 -0.00033079 3.39774e-21)
(-0.00663717 -0.000229582 -3.48174e-21)
(-0.00533582 -0.000140699 0)
(-0.004429 -6.39204e-05 0)
(-0.00387555 1.28191e-06 0)
(-0.00363445 5.56399e-05 -3.7995e-21)
(-0.00366565 9.99267e-05 -3.86827e-21)
(-0.00393113 0.000135177 3.93072e-21)
(-0.00439532 0.000162693 0)
(-0.00502529 0.000183561 -4.0382e-21)
(-0.00579133 0.000198698 -4.08299e-21)
(-0.00666654 0.000208975 -4.12186e-21)
(-0.00762689 0.000215204 0)
(-0.00865108 0.0002181 0)
(-0.00972044 0.000218277 0)
(-0.0108187 0.000216259 -4.22116e-21)
(-0.0119317 0.000212482 0)
(-0.0130473 0.000207299 0)
(-0.0141552 0.000200996 4.24288e-21)
(-0.0152463 0.000193801 0)
(-0.0163133 0.0001859 0)
(-0.0173495 0.000177446 4.22654e-21)
(-0.0183498 0.00016857 0)
(-0.0193097 0.000159382 0)
(-0.0202256 0.000149981 -4.17822e-21)
(-0.0210949 0.000140454 -4.156e-21)
(-0.0219154 0.000130885 0)
(-0.0226857 0.000121349 4.10357e-21)
(-0.0234049 0.00011192 0)
(-0.0240727 0.000102663 -4.0418e-21)
(-0.0246893 9.36404e-05 0)
(-0.0252553 8.49042e-05 -3.97218e-21)
(-0.0257717 7.65008e-05 -3.93488e-21)
(-0.0262398 6.8469e-05 0)
(-0.0266612 6.08401e-05 0)
(-0.0270378 5.36393e-05 0)
(-0.0273717 4.68848e-05 0)
(-0.027665 4.05891e-05 0)
(-0.0279202 3.47576e-05 0)
(-0.0281396 2.93895e-05 0)
(-0.0283258 2.4477e-05 -3.59751e-21)
(-0.0284812 2.00061e-05 3.55247e-21)
(-0.0286084 1.59556e-05 0)
(-0.0287097 1.22857e-05 0)
(-0.0287875 8.91695e-06 0)
(-0.0288444 5.88384e-06 0)
(-0.0288824 3.67149e-06 6.6493e-21)
(-0.0289034 1.94103e-06 0)
(-0.0289094 2.62118e-07 -6.46678e-21)
(-0.0289024 -1.265e-06 6.3759e-21)
(-0.0288842 -2.58274e-06 0)
(-0.0288562 -3.68684e-06 0)
(-0.02882 -4.58715e-06 0)
(-0.0287769 -5.30089e-06 -6.01616e-21)
(-0.0287279 -5.85264e-06 -5.92736e-21)
(-0.0286743 -6.26461e-06 0)
(-0.0286169 -6.55656e-06 -5.75129e-21)
(-0.0285565 -6.74572e-06 -5.66405e-21)
(-0.0284939 -6.84747e-06 5.57735e-21)
(-0.0284297 -6.87559e-06 0)
(-0.0283644 -6.8426e-06 0)
(-0.0282984 -6.75982e-06 5.32052e-21)
(-0.0282322 -6.63765e-06 0)
(-0.0281661 -6.48515e-06 0)
(-0.0281002 -6.31026e-06 0)
(-0.0280349 -6.1196e-06 0)
(-0.0279701 -5.91866e-06 -4.90308e-21)
(-0.0279062 -5.7122e-06 -4.82109e-21)
(-0.027843 -5.50442e-06 0)
(-0.0277807 -5.29888e-06 -4.65852e-21)
(-0.0277193 -5.09834e-06 0)
(-0.0276587 -4.90492e-06 0)
(-0.0275989 -4.71999e-06 -4.41794e-21)
(-0.0275399 -4.54442e-06 0)
(-0.0274817 -4.37865e-06 -4.25962e-21)
(-0.0274241 -4.22272e-06 0)
(-0.027367 -4.07633e-06 0)
(-0.0273105 -3.93873e-06 -4.02499e-21)
(-0.0272543 -3.80863e-06 0)
(-0.0271984 -3.68417e-06 -3.87036e-21)
(-0.0271428 -3.56281e-06 0)
(-0.0270872 -3.44107e-06 0)
(-0.0270316 -3.3133e-06 0)
(-0.0269758 -3.16992e-06 3.56494e-21)
(-0.0269199 -2.99517e-06 0)
(-0.0268638 -2.75906e-06 -3.4138e-21)
(-0.0268078 -2.40458e-06 0)
(-0.0267526 -1.82125e-06 0)
(-0.0266999 -7.77658e-07 0)
(-0.026654 1.21283e-06 0)
(-0.0266214 4.7708e-06 0)
(-0.0266031 9.02605e-06 0)
(-0.02659 9.68079e-06 0)
(-0.0265744 8.7309e-06 5.58512e-21)
(-0.0262321 -6.82437e-06 0)
(-0.0239627 -0.000449649 0)
(0.000131132 -0.000887382 6.05516e-21)
(0.00136079 -0.00285651 -7.79516e-21)
(0.00357102 -0.00467732 0)
(0.00660843 -0.00611215 5.15083e-21)
(0.0102025 -0.00705927 0)
(0.0140953 -0.00749975 2.552e-21)
(0.0180474 -0.00746616 -5.09445e-21)
(0.0218407 -0.00702466 -5.08656e-21)
(0.0252877 -0.00626202 0)
(0.0282389 -0.00527455 -5.09194e-21)
(0.0305863 -0.00415863 -2.55061e-21)
(0.0322629 -0.00300281 0)
(0.0332395 -0.0018816 0)
(0.0335184 -0.00085098 0)
(0.0331251 5.40461e-05 0)
(0.0320979 0.0008222 -2.62878e-21)
(0.0304768 0.00146211 0)
(0.0282945 0.0020008 5.33844e-21)
(0.0255661 0.00247967 0)
(0.0222817 0.00294883 0)
(0.0184037 0.00346045 -5.5213e-21)
(0.0138657 0.00406312 0)
(0.00857686 0.00479732 5.68782e-21)
(0.00242759 0.00569158 -2.90504e-21)
(-0.00470139 0.00676126 2.92171e-21)
(-0.0129326 0.00800942 -2.91281e-21)
(-0.0223789 0.00942878 -2.90104e-21)
(-0.0331398 0.0110043 0)
(-0.0452923 0.0127149 0)
(-0.0588851 0.0145341 2.84812e-21)
(-0.0739337 0.0164306 -2.77486e-21)
(-0.0904158 0.0183676 0)
(-0.108267 0.0203026 0)
(-0.127378 0.0221872 2.74352e-21)
(-0.147595 0.0239686 0)
(-0.168722 0.0255915 0)
(-0.190526 0.0270009 -2.6516e-21)
(-0.212744 0.0281449 0)
(-0.235091 0.0289782 2.57532e-21)
(-0.25727 0.0294641 -5.11257e-21)
(-0.278984 0.0295773 0)
(-0.299945 0.0293041 0)
(-0.319881 0.0286435 -9.86176e-21)
(-0.338543 0.0276061 -9.73516e-21)
(-0.355713 0.0262129 -9.6015e-21)
(-0.371204 0.0244939 4.76291e-21)
(-0.384861 0.0224861 -4.61608e-21)
(-0.396567 0.0202311 -1.36752e-20)
(-0.406233 0.0177736 8.96915e-21)
(-0.413804 0.0151588 4.34466e-21)
(-0.419253 0.0124304 0)
(-0.422579 0.00962843 -4.13494e-21)
(-0.423803 0.00679046 4.12031e-21)
(-0.422965 0.00395703 0)
(-0.420109 0.00117098 0)
(-0.415347 -0.00152751 0)
(-0.40878 -0.00410977 -3.47884e-21)
(-0.400505 -0.00655175 0)
(-0.390634 -0.0088325 6.44744e-21)
(-0.379284 -0.010934 0)
(-0.366584 -0.0128402 5.83731e-21)
(-0.352665 -0.0145374 0)
(-0.33767 -0.0160136 -5.24161e-21)
(-0.321745 -0.0172593 0)
(-0.305044 -0.0182674 4.68121e-21)
(-0.287725 -0.0190335 -2.24615e-21)
(-0.269951 -0.0195567 0)
(-0.251886 -0.0198392 -3.95356e-21)
(-0.233695 -0.0198872 -1.8447e-21)
(-0.215541 -0.0197106 -1.75685e-21)
(-0.197582 -0.019323 0)
(-0.179971 -0.0187416 -1.67189e-21)
(-0.162851 -0.0179866 -1.57092e-21)
(-0.146355 -0.0170807 0)
(-0.130602 -0.0160486 1.5145e-21)
(-0.115698 -0.014916 -3.05316e-21)
(-0.101731 -0.0137091 0)
(-0.0887727 -0.0124536 -1.52495e-21)
(-0.0768785 -0.0111742 0)
(-0.0660853 -0.00989386 4.78366e-21)
(-0.0564134 -0.00863355 0)
(-0.047866 -0.0074116 -5.04434e-21)
(-0.0404314 -0.00624359 -1.72435e-21)
(-0.0340832 -0.0051422 1.79896e-21)
(-0.0287825 -0.00411718 3.70374e-21)
(-0.0244796 -0.00317545 -3.80966e-21)
(-0.0211155 -0.00232124 0)
(-0.0186242 -0.00155632 0)
(-0.0169343 -0.000880332 0)
(-0.0159714 -0.000291135 1.25588e-20)
(-0.0156593 0.000214877 4.26547e-21)
(-0.0159219 0.000642953 -4.33632e-21)
(-0.0166854 0.000999454 0)
(-0.0178788 0.00129097 -4.45288e-21)
(-0.0194353 0.00152397 4.49946e-21)
(-0.0212926 0.00170484 4.53861e-21)
(-0.023393 0.00183977 0)
(-0.0256838 0.00193461 0)
(-0.0281177 0.00199478 0)
(-0.0306522 0.00202523 4.62777e-21)
(-0.0332496 0.00203043 0)
(-0.0358769 0.00201432 -9.2653e-21)
(-0.0385053 0.00198036 -1.38955e-20)
(-0.0411098 0.00193159 9.24678e-21)
(-0.043669 0.00187066 0)
(-0.0461648 0.00179992 4.59335e-21)
(-0.0485818 0.00172142 0)
(-0.0509077 0.00163697 9.11824e-21)
(-0.0531323 0.00154817 -4.53093e-21)
(-0.0552476 0.00145643 -4.50445e-21)
(-0.0572478 0.00136303 0)
(-0.0591286 0.00126907 -1.33467e-20)
(-0.0608877 0.00117553 8.82842e-21)
(-0.0625238 0.00108329 4.38175e-21)
(-0.0640373 0.000993093 0)
(-0.0654293 0.000905565 4.30545e-21)
(-0.0667023 0.000821241 1.27909e-20)
(-0.0678593 0.000740553 0)
(-0.0689044 0.000663842 8.35839e-21)
(-0.0698418 0.00059137 8.27178e-21)
(-0.0706766 0.000523327 8.18355e-21)
(-0.0714142 0.000459828 0)
(-0.07206 0.000400928 0)
(-0.0726198 0.000346618 0)
(-0.0730997 0.000296838 -3.90865e-21)
(-0.0735055 0.000251483 -3.86388e-21)
(-0.0738431 0.000210404 0)
(-0.0741183 0.00017341 -7.53906e-21)
(-0.0743368 0.000140277 -7.4452e-21)
(-0.074504 0.000110897 0)
(-0.0746252 8.54505e-05 -7.25801e-21)
(-0.0747056 6.33233e-05 -1.4326e-20)
(-0.0747498 4.39826e-05 7.0694e-21)
(-0.074762 2.72914e-05 6.97478e-21)
(-0.0747464 1.30639e-05 0)
(-0.0747069 1.09371e-06 0)
(-0.0746468 -8.83272e-06 0)
(-0.0745694 -1.69277e-05 6.60398e-21)
(-0.0744775 -2.34125e-05 -6.51197e-21)
(-0.0743736 -2.84889e-05 -1.28414e-20)
(-0.0742601 -3.23412e-05 6.32983e-21)
(-0.074139 -3.5137e-05 -6.23935e-21)
(-0.0740119 -3.70293e-05 -6.14935e-21)
(-0.0738805 -3.81563e-05 0)
(-0.0737459 -3.86436e-05 0)
(-0.0736094 -3.86035e-05 5.88211e-21)
(-0.0734717 -3.8137e-05 0)
(-0.0733337 -3.73334e-05 0)
(-0.0731961 -3.62709e-05 -1.12374e-20)
(-0.0730592 -3.5016e-05 0)
(-0.0729234 -3.36252e-05 -5.44514e-21)
(-0.0727891 -3.21473e-05 5.35882e-21)
(-0.0726564 -3.0624e-05 0)
(-0.0725255 -2.90905e-05 -5.18751e-21)
(-0.0723963 -2.75756e-05 0)
(-0.0722689 -2.61025e-05 0)
(-0.0721433 -2.46891e-05 4.93279e-21)
(-0.0720193 -2.33496e-05 -9.69708e-21)
(-0.0718969 -2.20962e-05 4.76452e-21)
(-0.0717758 -2.09386e-05 0)
(-0.0716558 -1.98856e-05 0)
(-0.0715368 -1.89439e-05 -4.51418e-21)
(-0.0714185 -1.81195e-05 0)
(-0.0713005 -1.7418e-05 -4.3485e-21)
(-0.0711826 -1.68455e-05 0)
(-0.0710642 -1.6407e-05 0)
(-0.070945 -1.61012e-05 0)
(-0.0708244 -1.59132e-05 -4.01961e-21)
(-0.0707018 -1.57996e-05 0)
(-0.0705766 -1.56449e-05 3.85608e-21)
(-0.0704484 -1.51814e-05 0)
(-0.0703172 -1.37989e-05 0)
(-0.0701847 -1.02285e-05 -7.22158e-21)
(-0.0700552 -2.58561e-06 7.05665e-21)
(-0.0699331 9.53583e-06 0)
(-0.0698088 1.80836e-05 0)
(-0.0696478 -9.33415e-06 0)
(-0.0693335 -0.0001617 -1.90787e-20)
(-0.0681485 -0.000663558 0)
(-0.0646204 -0.00212215 1.18568e-20)
(0.000189392 -0.0026879 -5.49447e-24)
(0.00189479 -0.00745027 1.03463e-20)
(0.00479405 -0.011367 0)
(0.00862216 -0.0142505 -1.02044e-20)
(0.0129933 -0.0160259 0)
(0.0175771 -0.0167109 0)
(0.0220864 -0.0163942 3.74561e-24)
(0.0262684 -0.0152162 5.02592e-21)
(0.0299075 -0.0133501 5.02692e-21)
(0.03283 -0.0109841 5.03976e-21)
(0.034905 -0.00830581 0)
(0.0360424 -0.00548768 0)
(0.036188 -0.00267585 -5.12883e-21)
(0.0353159 1.82208e-05 -1.03294e-20)
(0.0334203 0.00252662 1.03947e-20)
(0.0305037 0.00482464 0)
(0.0265669 0.0069304 1.05743e-20)
(0.0215982 0.00889956 -5.36319e-21)
(0.0155636 0.0108174 0)
(0.00840059 0.0127869 1.10007e-20)
(1.81885e-05 0.0149148 5.57764e-21)
(-0.00970253 0.0172986 -1.10446e-20)
(-0.0208975 0.020013 -5.49084e-21)
(-0.033707 0.0231021 0)
(-0.0482637 0.0265778 1.06116e-20)
(-0.0646786 0.0304196 1.04423e-20)
(-0.0830276 0.0345785 0)
(-0.10334 0.0389818 1.00819e-20)
(-0.12559 0.0435367 0)
(-0.149685 0.0481332 9.7171e-21)
(-0.175468 0.0526471 4.78332e-21)
(-0.202712 0.056944 0)
(-0.231132 0.0608853 0)
(-0.260385 0.0643346 0)
(-0.290092 0.0671654 0)
(-0.319849 0.069269 0)
(-0.349244 0.0705602 0)
(-0.377874 0.0709819 8.69198e-21)
(-0.405359 0.070507 -1.28647e-20)
(-0.431355 0.0691383 0)
(-0.455559 0.0669063 0)
(-0.477718 0.0638654 0)
(-0.49763 0.0600896 -2.02519e-22)
(-0.515142 0.055667 8.15476e-21)
(-0.530151 0.0506949 1.64007e-20)
(-0.542596 0.0452754 -1.62689e-20)
(-0.552457 0.0395109 -8.16863e-21)
(-0.559745 0.0335009 7.86615e-21)
(-0.564501 0.0273396 2.13136e-22)
(-0.566789 0.021113 7.8695e-21)
(-0.56669 0.0148986 0)
(-0.5643 0.00876873 7.59677e-21)
(-0.559718 0.00279224 1.89276e-22)
(-0.553078 -0.00296547 0)
(-0.544532 -0.00845375 0)
(-0.53417 -0.0136422 -6.735e-21)
(-0.52211 -0.0185065 0)
(-0.50847 -0.0230222 0)
(-0.49337 -0.0271677 6.09255e-21)
(-0.476935 -0.0309237 1.1366e-20)
(-0.459293 -0.0342728 -5.28758e-21)
(-0.440579 -0.0371997 0)
(-0.42093 -0.0396912 4.7694e-21)
(-0.40049 -0.0417367 0)
(-0.379408 -0.0433289 4.47216e-21)
(-0.357835 -0.0444643 4.04938e-21)
(-0.33593 -0.0451442 -7.83708e-21)
(-0.313851 -0.0453751 -3.79164e-21)
(-0.291759 -0.0451694 0)
(-0.269811 -0.0445457 6.7365e-21)
(-0.248165 -0.0435285 0)
(-0.22697 -0.0421484 9.29083e-21)
(-0.206369 -0.040441 6.05181e-21)
(-0.186496 -0.0384464 5.92622e-21)
(-0.167474 -0.0362082 -5.85242e-21)
(-0.149411 -0.033772 8.70749e-21)
(-0.132403 -0.0311847 0)
(-0.116531 -0.0284931 0)
(-0.101859 -0.0257427 -6.03348e-21)
(-0.0884367 -0.0229767 -9.24312e-21)
(-0.0762961 -0.0202354 0)
(-0.0654541 -0.0175553 3.25514e-21)
(-0.0559117 -0.0149687 0)
(-0.0476552 -0.0125029 -1.04779e-20)
(-0.0406565 -0.0101807 3.32872e-23)
(-0.0348748 -0.00801956 -3.03449e-23)
(-0.0302571 -0.00603232 7.69099e-21)
(-0.0267405 -0.00422702 0)
(-0.0242534 -0.00260733 -8.11458e-21)
(-0.0227173 -0.00117304 1.91894e-23)
(-0.0220487 7.9517e-05 0)
(-0.0221609 0.00115779 0)
(-0.0229661 0.00207213 0)
(-0.0243774 0.00283385 8.81271e-21)
(-0.0263103 0.00345529 0)
(-0.0286834 0.00394918 0)
(-0.0314197 0.00432845 0)
(-0.0344471 0.00460578 0)
(-0.0376993 0.00479341 0)
(-0.0411156 0.00490288 9.09702e-21)
(-0.0446416 0.00494494 0)
(-0.0482285 0.00492939 9.09657e-21)
(-0.0518335 0.00486508 9.08292e-21)
(-0.0554193 0.00475993 -9.06121e-21)
(-0.0589534 0.00462105 0)
(-0.0624084 0.0044548 -8.99631e-21)
(-0.0657613 0.00426682 0)
(-0.068993 0.00406213 -8.90678e-21)
(-0.0720882 0.00384516 8.85407e-21)
(-0.0750352 0.00361982 2.63852e-20)
(-0.0778249 0.00338956 0)
(-0.0804511 0.00315742 2.60039e-20)
(-0.0829102 0.00292605 8.59603e-21)
(-0.0852004 0.00269774 0)
(-0.0873221 0.00247443 1.69022e-20)
(-0.089277 0.00225777 1.67471e-20)
(-0.0910684 0.00204912 -2.4883e-20)
(-0.0927009 0.00184956 0)
(-0.0941798 0.00165993 -8.12993e-21)
(-0.0955114 0.00148089 -8.04475e-21)
(-0.0967025 0.00131287 -2.3872e-20)
(-0.0977607 0.00115614 0)
(-0.0986936 0.0010108 0)
(-0.0995092 0.00087682 0)
(-0.100216 0.00075404 -7.60139e-21)
(-0.100821 0.000642198 0)
(-0.101333 0.000540943 0)