/*--------------------------------*- C++ -*----------------------------------*\
  =========                 |
  \\      /  F ield         | OpenFOAM: The Open Source CFD Toolbox
   \\    /   O peration     | Website:  https://openfoam.org
    \\  /    A nd           | Version:  8
     \\/     M anipulation  |
\*---------------------------------------------------------------------------*/
FoamFile
{
    version     2.0;
    format      ascii;
    class       volScalarField;
    location    "0.68";
    object      p;
}
// * * * * * * * * * * * * * * * * * * * * * * * * * * * * * * * * * * * * * //

dimensions      [0 2 -2 0 0 0 0];

internalField   nonuniform List<scalar> 
12225
(
-0.00444474
-0.00441271
-0.00438176
-0.00435852
-0.00434894
-0.00435588
-0.00438205
-0.00443008
-0.00450307
-0.00460505
-0.00474175
-0.00492217
-0.00516136
-0.0054864
-0.00594787
-0.00664292
-0.00784366
-0.0106866
-0.00444453
-0.00441593
-0.00438826
-0.00436805
-0.0043613
-0.00437099
-0.0043999
-0.0044507
-0.00452653
-0.00463142
-0.00477107
-0.00495427
-0.0051953
-0.00551875
-0.00596714
-0.00661541
-0.00760963
-0.00953122
-0.00444557
-0.00442009
-0.00439606
-0.0043793
-0.00437583
-0.00438868
-0.00442069
-0.00447455
-0.0045534
-0.00466118
-0.00480337
-0.00498818
-0.00522832
-0.0055442
-0.00596715
-0.0065425
-0.00729739
-0.00850827
-0.00444814
-0.00442472
-0.00440373
-0.00439013
-0.00438967
-0.00440541
-0.00444016
-0.00449661
-0.00457778
-0.00468739
-0.00483044
-0.00501407
-0.00524863
-0.00554907
-0.00593456
-0.0064244
-0.00698835
-0.0077518
-0.00445205
-0.00442978
-0.00441126
-0.00440046
-0.00440272
-0.00442102
-0.00445812
-0.00451661
-0.00459932
-0.00470961
-0.00485173
-0.00503137
-0.00525594
-0.00553459
-0.00587543
-0.00627897
-0.00669655
-0.00717479
-0.00445707
-0.00443526
-0.00441869
-0.00441038
-0.00441508
-0.00443563
-0.00447469
-0.00453468
-0.00461816
-0.00472796
-0.00486744
-0.00504053
-0.00525156
-0.00550419
-0.00579781
-0.00612096
-0.00642392
-0.00671454
-0.00446291
-0.00444102
-0.0044259
-0.00441976
-0.00442658
-0.00444906
-0.00448963
-0.00455053
-0.00463395
-0.00474212
-0.00487731
-0.00504165
-0.00523649
-0.00546089
-0.00570808
-0.00596043
-0.00617465
-0.00634411
-0.00446921
-0.00444684
-0.0044327
-0.00442838
-0.00443698
-0.00446099
-0.0045026
-0.00456378
-0.0046463
-0.0047517
-0.00488114
-0.00503498
-0.00521198
-0.00540768
-0.00561167
-0.00580448
-0.00595208
-0.00604602
-0.00447551
-0.00445242
-0.00443886
-0.004436
-0.00444602
-0.00447113
-0.00451327
-0.00457408
-0.00465487
-0.00475648
-0.00487896
-0.00502111
-0.0051796
-0.00534764
-0.00551322
-0.00565792
-0.005757
-0.00580521
-0.00448124
-0.00445736
-0.00444409
-0.00444234
-0.00445341
-0.0044792
-0.00452133
-0.00458113
-0.00465943
-0.00475637
-0.00487102
-0.00500088
-0.00514111
-0.00528367
-0.00541645
-0.00552359
-0.00558831
-0.00560946
-0.00448579
-0.00446117
-0.00444802
-0.0044471
-0.00445886
-0.00448488
-0.00452649
-0.00458468
-0.00465983
-0.00475143
-0.00485774
-0.00497527
-0.00509825
-0.00521821
-0.00532387
-0.00540248
-0.00544335
-0.00544884
-0.00448829
-0.00446316
-0.00445007
-0.00444967
-0.00446174
-0.00448758
-0.00452827
-0.00458449
-0.00465625
-0.00474257
-0.00484111
-0.00494777
-0.00505637
-0.00515853
-0.00524413
-0.00530299
-0.00532843
-0.00532518
-0.00448852
-0.00446373
-0.00445068
-0.00445068
-0.00446288
-0.00448826
-0.00452769
-0.00458156
-0.00464957
-0.00473034
-0.00482112
-0.00491744
-0.00501306
-0.00510007
-0.00516972
-0.00521414
-0.00522943
-0.00522037
-0.00448532
-0.00446181
-0.00444904
-0.00444939
-0.00446149
-0.004486
-0.00452353
-0.00457427
-0.00463761
-0.00471187
-0.004794
-0.00487943
-0.00496211
-0.0050349
-0.00509052
-0.00512319
-0.00513086
-0.00511764
-0.00447639
-0.00445532
-0.00444353
-0.00444425
-0.00445598
-0.00447905
-0.00451391
-0.00456057
-0.00461823
-0.00468504
-0.00475787
-0.00483225
-0.00490259
-0.00496268
-0.00500657
-0.00502998
-0.00503177
-0.00501502
-0.00445844
-0.00444147
-0.00443189
-0.00443321
-0.00444425
-0.00446519
-0.00449641
-0.00453784
-0.00458866
-0.00464702
-0.00470995
-0.0047733
-0.00483209
-0.00488096
-0.00491503
-0.00493093
-0.0049275
-0.00490651
-0.00442757
-0.00441689
-0.0044113
-0.0044137
-0.00442372
-0.00444167
-0.00446799
-0.00450272
-0.00454516
-0.0045937
-0.00464569
-0.00469749
-0.00474475
-0.00478286
-0.00480761
-0.00481592
-0.00480613
-0.0047786
-0.00438052
-0.00437857
-0.00437893
-0.00438296
-0.00439144
-0.0044052
-0.00442491
-0.00445081
-0.00448252
-0.00451879
-0.00455745
-0.00459545
-0.00462905
-0.00465424
-0.00466719
-0.00466473
-0.00464457
-0.00460591
-0.00431872
-0.00432709
-0.00433425
-0.00433953
-0.004345
-0.00435223
-0.00436222
-0.00437553
-0.00439217
-0.00441142
-0.00443174
-0.00445076
-0.00446542
-0.00447226
-0.00446774
-0.00444853
-0.00441145
-0.00435479
-0.00427212
-0.0042886
-0.00430069
-0.00430604
-0.00430762
-0.00430724
-0.00430592
-0.00430427
-0.00430248
-0.00430022
-0.00429652
-0.00428978
-0.00427778
-0.00425797
-0.00422767
-0.00418423
-0.0041247
-0.00404672
-0.00424904
-0.00426955
-0.00428384
-0.00428888
-0.00428788
-0.00428245
-0.00427335
-0.00426104
-0.00424565
-0.00422694
-0.00420423
-0.00417633
-0.00414165
-0.00409829
-0.0040443
-0.00397767
-0.00389607
-0.0037975
-0.0042419
-0.00426379
-0.0042788
-0.00428374
-0.00428145
-0.00427302
-0.00425881
-0.00423896
-0.0042134
-0.00418182
-0.00414359
-0.00409782
-0.00404333
-0.00397879
-0.00390283
-0.00381416
-0.00371118
-0.00359234
-0.00424528
-0.00426682
-0.00428184
-0.00428725
-0.00428504
-0.00427562
-0.00425888
-0.00423464
-0.00420255
-0.00416213
-0.00411271
-0.00405349
-0.00398355
-0.00390195
-0.00380779
-0.00370035
-0.0035788
-0.00344224
-0.00425419
-0.00427455
-0.00428955
-0.00429619
-0.00429529
-0.00428654
-0.00426944
-0.00424348
-0.00420804
-0.00416242
-0.00410584
-0.00403749
-0.00395656
-0.00386232
-0.0037542
-0.00363187
-0.00349513
-0.00334377
-0.00426486
-0.00428397
-0.00429943
-0.00430805
-0.00430941
-0.00430256
-0.0042867
-0.00426101
-0.00422466
-0.00417673
-0.00411629
-0.00404243
-0.00395435
-0.00385143
-0.00373324
-0.00359973
-0.00345112
-0.00328785
-0.00427485
-0.00429317
-0.00430984
-0.00432112
-0.00432537
-0.00432124
-0.00430764
-0.0042836
-0.00424805
-0.00419989
-0.00413803
-0.00406144
-0.00396924
-0.00386079
-0.00373575
-0.00359418
-0.00343655
-0.00326383
-0.00428274
-0.00430117
-0.00431992
-0.00433436
-0.00434192
-0.00434094
-0.00433024
-0.00430867
-0.00427505
-0.00422809
-0.00416654
-0.00408921
-0.0039951
-0.0038835
-0.00375407
-0.00360686
-0.00344249
-0.00326225
-0.0042879
-0.00430764
-0.00432937
-0.0043474
-0.00435851
-0.00436096
-0.00435351
-0.00433496
-0.00430401
-0.00425924
-0.00419921
-0.00412257
-0.00402816
-0.00391517
-0.00378315
-0.00363215
-0.00346273
-0.00327637
-0.00429017
-0.0043126
-0.00433812
-0.00436
-0.00437476
-0.00438073
-0.00437672
-0.00436151
-0.00433371
-0.00429178
-0.00423412
-0.00415919
-0.00406567
-0.00395257
-0.00381933
-0.0036659
-0.00349276
-0.0033014
-0.00429025
-0.00431591
-0.00434487
-0.00436996
-0.0043877
-0.00439655
-0.00439538
-0.00438299
-0.00435794
-0.00431859
-0.0042632
-0.0041901
-0.00409781
-0.00398519
-0.00385155
-0.00369676
-0.00352121
-0.00332635
0.000355673
0.000374305
0.000380264
0.000361613
0.00031706
0.000247454
0.000154011
3.83092e-05
-9.78268e-05
-0.000252561
-0.000424178
-0.000611251
-0.00081261
-0.00102737
-0.00125487
-0.00149463
-0.00174626
-0.00200931
-0.0022832
-0.00256711
-0.00285984
-0.00315973
-0.00346458
-0.00377157
-0.00407721
-0.00437729
-0.00466688
-0.00494031
-0.00519121
-0.00541256
-0.00559681
-0.00573595
-0.00582169
-0.00584569
-0.00579973
-0.00567599
-0.00546734
-0.00516761
-0.00477186
-0.0042767
-0.00368049
-0.0029836
-0.00218852
-0.0013
-0.000325009
0.000727531
0.00184604
0.00301723
0.00422617
0.00545644
0.00669064
0.0079107
0.00909835
0.0102355
0.0113044
0.0122884
0.0131718
0.0139402
0.0145809
0.0150828
0.0154363
0.015634
0.0156702
0.0155413
0.0152455
0.0147837
0.0141589
0.0133769
0.0124462
0.011378
0.0101869
0.00889046
0.00750917
0.00606646
0.00458819
0.00310203
0.00163666
0.000220514
-0.00111778
-0.00235364
-0.00346496
-0.00443393
-0.00524812
-0.005901
-0.00639217
-0.00672724
-0.00691718
-0.00697745
-0.00692671
-0.00678548
-0.00657477
-0.00631482
-0.00602412
-0.00571871
-0.00541185
-0.00511398
-0.00483294
-0.00457436
-0.00434205
-0.00413832
-0.00396422
-0.00381963
-0.00370332
-0.00361301
-0.00354552
-0.00349702
-0.00346336
-0.00344037
-0.00342416
-0.00341129
-0.00339889
-0.0033847
-0.003367
-0.00334462
-0.00331687
-0.00328342
-0.00324434
-0.00319994
-0.00315079
-0.00309761
-0.00304126
-0.00298263
-0.00292268
-0.00286232
-0.00280236
-0.00274356
-0.00268655
-0.00263185
-0.00257984
-0.00253079
-0.00248485
-0.00244206
-0.00240238
-0.0023657
-0.00233184
-0.00230061
-0.00227174
-0.002245
-0.00222009
-0.00219678
-0.00217478
-0.00215387
-0.00213381
-0.00211439
-0.00209541
-0.00207671
-0.00205813
-0.00203954
-0.00202081
-0.00200185
-0.00198257
-0.0019629
-0.00194278
-0.00192216
-0.001901
-0.00187928
-0.00185697
-0.00183407
-0.00181056
-0.00178645
-0.00176172
-0.00173637
-0.00171041
-0.00168381
-0.00165655
-0.0016286
-0.00159987
-0.00157027
-0.00153967
-0.00150791
-0.0014748
-0.00144013
-0.00140364
-0.0013652
-0.00132466
-0.00128203
-0.00123742
-0.00119179
-0.00114833
-0.00108962
0.000362243
0.000381757
0.000387809
0.000369763
0.000328303
0.000265171
0.000181672
7.91079e-05
-4.11268e-05
-0.000177658
-0.000329274
-0.000494926
-0.00067381
-0.000865349
-0.00106916
-0.00128497
-0.00151259
-0.00175175
-0.00200211
-0.00226304
-0.00253363
-0.00281254
-0.00309792
-0.00338738
-0.00367786
-0.00396564
-0.00424629
-0.00451463
-0.00476474
-0.00499004
-0.00518328
-0.00533669
-0.0054421
-0.00549116
-0.00547546
-0.00538691
-0.00521791
-0.00496171
-0.00461271
-0.00416676
-0.0036214
-0.00297618
-0.00223284
-0.00139532
-0.000469723
0.000535371
0.00160928
0.002739
0.00390971
0.00510515
0.00630796
0.00750007
0.00866313
0.00977886
0.0108295
0.0117981
0.0126688
0.0134271
0.0140602
0.0145568
0.0149075
0.0151044
0.0151418
0.0150158
0.014725
0.0142705
0.0136557
0.0128866
0.0119718
0.0109228
0.0097545
0.00848464
0.00713412
0.00572659
0.00428807
0.00284629
0.00142991
6.76299e-05
-0.00121416
-0.00239041
-0.00344078
-0.00434917
-0.00510491
-0.00570344
-0.00614638
-0.00644113
-0.00660016
-0.00663986
-0.00657924
-0.0064385
-0.00623771
-0.00599567
-0.00572908
-0.00545205
-0.00517591
-0.00490938
-0.00465881
-0.00442867
-0.00422191
-0.00404031
-0.00388467
-0.00375487
-0.0036499
-0.00356785
-0.00350606
-0.00346129
-0.00342998
-0.00340849
-0.00339341
-0.00338165
-0.00337057
-0.00335805
-0.00334242
-0.00332251
-0.00329753
-0.00326711
-0.00323119
-0.00318998
-0.00314395
-0.00309376
-0.00304017
-0.00298407
-0.00292632
-0.00286781
-0.00280939
-0.00275179
-0.00269567
-0.00264157
-0.0025899
-0.00254095
-0.00249491
-0.00245186
-0.00241179
-0.00237462
-0.00234021
-0.00230836
-0.00227887
-0.00225148
-0.00222594
-0.002202
-0.00217941
-0.00215794
-0.00213735
-0.00211744
-0.00209802
-0.00207891
-0.00205997
-0.00204105
-0.00202203
-0.00200281
-0.00198331
-0.00196344
-0.00194315
-0.00192238
-0.0019011
-0.00187928
-0.00185689
-0.00183392
-0.00181035
-0.00178618
-0.00176141
-0.00173603
-0.00171003
-0.00168339
-0.00165609
-0.00162809
-0.00159932
-0.00156969
-0.00153909
-0.00150735
-0.00147431
-0.00143977
-0.00140356
-0.00136552
-0.00132555
-0.00128373
-0.00124024
-0.00119617
-0.00115453
-0.00109841
0.000480264
0.000491754
0.000489442
0.000465045
0.000420232
0.000357155
0.000277207
0.000181567
7.1322e-05
-5.24976e-05
-0.000189064
-0.000337783
-0.000498305
-0.00067051
-0.000854467
-0.00105037
-0.00125848
-0.00147902
-0.00171208
-0.00195755
-0.00221501
-0.00248363
-0.00276208
-0.00304847
-0.00334025
-0.00363412
-0.00392602
-0.00421102
-0.00448338
-0.00473647
-0.00496288
-0.00515449
-0.00530263
-0.00539822
-0.00543207
-0.00539515
-0.00527887
-0.00507547
-0.00477837
-0.00438248
-0.00388455
-0.00328352
-0.00258057
-0.0017791
-0.00088486
9.33841e-05
0.00114446
0.00225507
0.00341005
0.0045927
0.00578519
0.00696897
0.00812522
0.0092353
0.0102811
0.0112455
0.0121125
0.0128676
0.0134979
0.0139923
0.0143415
0.0145379
0.0145759
0.0144516
0.0141637
0.0137133
0.0131038
0.0123413
0.0114343
0.0103945
0.00923692
0.00797963
0.00664389
0.00525391
0.00383633
0.00241961
0.00103309
-0.000294051
-0.00153407
-0.00266213
-0.00365792
-0.00450628
-0.00519783
-0.00572982
-0.00610622
-0.00633718
-0.00643799
-0.00642772
-0.00632751
-0.00615898
-0.00594266
-0.00569689
-0.00543709
-0.00517543
-0.004921
-0.00468017
-0.00445712
-0.00425444
-0.00407364
-0.00391551
-0.00378026
-0.00366755
-0.00357642
-0.00350527
-0.00345184
-0.00341337
-0.00338681
-0.00336902
-0.00335698
-0.00334796
-0.00333958
-0.00332985
-0.0033172
-0.00330044
-0.00327877
-0.00325175
-0.00321922
-0.00318134
-0.00313849
-0.00309125
-0.00304036
-0.00298664
-0.00293096
-0.00287418
-0.00281716
-0.00276064
-0.0027053
-0.00265171
-0.0026003
-0.0025514
-0.00250523
-0.0024619
-0.00242143
-0.00238377
-0.0023488
-0.00231636
-0.00228623
-0.00225821
-0.00223204
-0.00220748
-0.0021843
-0.00216226
-0.00214115
-0.00212074
-0.00210087
-0.00208134
-0.00206202
-0.00204276
-0.00202343
-0.00200395
-0.0019842
-0.00196412
-0.00194365
-0.00192272
-0.00190131
-0.00187937
-0.00185688
-0.00183383
-0.0018102
-0.00178597
-0.00176115
-0.00173573
-0.00170969
-0.00168302
-0.00165569
-0.00162765
-0.00159886
-0.00156921
-0.00153861
-0.00150692
-0.00147399
-0.00143964
-0.00140374
-0.00136615
-0.00132684
-0.00128592
-0.00124361
-0.00120105
-0.00116152
-0.00110697
0.000717551
0.000710004
0.000688611
0.000649935
0.000595239
0.00052604
0.000443456
0.00034838
0.000241643
0.000123841
-4.68583e-06
-0.000143879
-0.000293963
-0.000455431
-0.000629005
-0.000815567
-0.00101608
-0.0012315
-0.00146267
-0.00171019
-0.00197434
-0.00225495
-0.00255126
-0.00286185
-0.00318448
-0.00351601
-0.0038523
-0.00418816
-0.00451726
-0.0048322
-0.00512456
-0.00538499
-0.00560344
-0.00576937
-0.00587209
-0.00590109
-0.00584642
-0.00569914
-0.00545165
-0.00509816
-0.00463502
-0.00406097
-0.00337712
-0.00258685
-0.0016969
-0.000717168
0.00034034
0.00146138
0.00262977
0.00382778
0.00503658
0.00623674
0.00740868
0.00853314
0.00959161
0.0105667
0.0114423
0.0122042
0.0128395
0.0133376
0.0136895
0.0138879
0.0139277
0.0138053
0.0135193
0.0130706
0.0124624
0.0117004
0.0107931
0.0097519
0.00859168
0.00733063
0.00599035
0.00459561
0.00317396
0.00175502
0.00036958
-0.000951593
-0.00217901
-0.00328555
-0.00424912
-0.00505384
-0.00569008
-0.00615557
-0.00645582
-0.00660366
-0.006618
-0.00652217
-0.00634172
-0.0061023
-0.00582761
-0.00553784
-0.00524885
-0.00497195
-0.0047143
-0.00447971
-0.00426957
-0.00408384
-0.00392179
-0.00378251
-0.00366506
-0.00356844
-0.00349138
-0.00343226
-0.00338898
-0.00335901
-0.00333955
-0.00332777
-0.0033209
-0.00331646
-0.00331224
-0.0033064
-0.00329744
-0.00328422
-0.00326592
-0.00324209
-0.00321254
-0.0031774
-0.00313702
-0.00309197
-0.00304297
-0.00299085
-0.00293649
-0.00288077
-0.00282454
-0.0027686
-0.00271363
-0.00266023
-0.00260886
-0.00255988
-0.00251352
-0.00246991
-0.00242909
-0.00239103
-0.00235563
-0.00232272
-0.00229212
-0.00226362
-0.00223698
-0.00221196
-0.00218833
-0.00216587
-0.00214434
-0.00212356
-0.00210333
-0.00208348
-0.00206386
-0.00204432
-0.00202475
-0.00200504
-0.00198509
-0.00196484
-0.00194421
-0.00192315
-0.00190161
-0.00187957
-0.00185699
-0.00183386
-0.00181017
-0.00178589
-0.00176102
-0.00173556
-0.00170948
-0.00168278
-0.00165542
-0.00162737
-0.00159857
-0.00156894
-0.00153838
-0.00150677
-0.00147397
-0.00143985
-0.00140427
-0.00136714
-0.00132845
-0.00128832
-0.001247
-0.00120557
-0.00116714
-0.00111462
0.00104732
0.00101214
0.000962988
0.000903554
0.000833948
0.000754216
0.000664726
0.000565819
0.000457653
0.000340145
0.000212943
7.5384e-05
-7.35126e-05
-0.000235038
-0.00041075
-0.000602405
-0.000811867
-0.00104099
-0.0012915
-0.00156483
-0.00186199
-0.0021834
-0.00252871
-0.00289667
-0.00328495
-0.00368998
-0.00410689
-0.00452942
-0.0049499
-0.0053593
-0.00574739
-0.00610289
-0.00641378
-0.00666763
-0.00685196
-0.00695473
-0.00696471
-0.00687197
-0.00666831
-0.00634768
-0.00590648
-0.00534364
-0.00466057
-0.00386218
-0.00295682
-0.00195522
-0.000870655
0.000281249
0.00148292
0.0027153
0.00395831
0.00519142
0.00639414
0.00754652
0.00862959
0.00962571
0.0105189
0.011295
0.0119417
0.0124487
0.0128076
0.0130117
0.0130562
0.0129377
0.0126551
0.0122087
0.0116019
0.0108397
0.00993024
0.00888449
0.0077169
0.00644553
0.00509206
0.00368171
0.00224284
0.000806304
-0.00059548
-0.00192969
-0.00316452
-0.00427047
-0.00522205
-0.00600036
-0.00659395
-0.00699942
-0.0072222
-0.00727653
-0.00718441
-0.00697382
-0.00667614
-0.00632329
-0.00594491
-0.00556603
-0.00520558
-0.00487595
-0.00458353
-0.00432986
-0.00411324
-0.00393027
-0.00377706
-0.00365007
-0.00354641
-0.00346378
-0.00340011
-0.00335333
-0.00332119
-0.00330114
-0.00329047
-0.00328642
-0.00328638
-0.00328798
-0.00328915
-0.00328814
-0.00328351
-0.00327415
-0.0032593
-0.00323848
-0.00321154
-0.00317861
-0.00314005
-0.00309646
-0.0030486
-0.00299732
-0.00294354
-0.0028882
-0.00283217
-0.00277628
-0.00272126
-0.00266771
-0.00261613
-0.00256688
-0.00252022
-0.00247629
-0.00243513
-0.00239672
-0.00236095
-0.00232769
-0.00229673
-0.00226788
-0.00224089
-0.00221554
-0.00219159
-0.00216881
-0.00214699
-0.00212593
-0.00210544
-0.00208535
-0.00206549
-0.00204575
-0.00202598
-0.00200609
-0.00198598
-0.00196558
-0.00194482
-0.00192364
-0.001902
-0.00187987
-0.00185721
-0.00183401
-0.00181025
-0.00178592
-0.001761
-0.0017355
-0.00170939
-0.00168266
-0.00165529
-0.00162723
-0.00159844
-0.00156884
-0.00153835
-0.00150685
-0.00147424
-0.00144037
-0.00140514
-0.00136848
-0.00133038
-0.00129098
-0.0012505
-0.00120993
-0.00117186
-0.00112212
0.00143617
0.00136815
0.00128621
0.00120238
0.00111501
0.00102205
0.000922585
0.000815936
0.00070126
0.000577497
0.000443336
0.000297174
0.000137078
-3.92071e-05
-0.000234226
-0.00045073
-0.000691567
-0.000959532
-0.0012572
-0.00158671
-0.00194959
-0.00234651
-0.00277706
-0.00323956
-0.00373087
-0.00424625
-0.00477926
-0.00532178
-0.00586402
-0.00639468
-0.0069012
-0.00737004
-0.00778706
-0.00813791
-0.00840854
-0.00858563
-0.00865708
-0.00861244
-0.00844336
-0.00814396
-0.007711
-0.00714405
-0.00644601
-0.00562337
-0.00468553
-0.00364464
-0.00251553
-0.00131545
-6.35715e-05
0.00121949
0.00251223
0.00379284
0.00503977
0.00623227
0.00735083
0.00837762
0.00929669
0.0100942
0.0107584
0.0112796
0.0116502
0.0118641
0.011917
0.0118059
0.0115296
0.0110886
0.0104855
0.00972518
0.00881497
0.0077652
0.00658977
0.00530632
0.00393646
0.00250564
0.00104285
-0.000419961
-0.00184879
-0.00320877
-0.00446556
-0.00558692
-0.00654375
-0.00731383
-0.00788135
-0.00824026
-0.00839413
-0.00835664
-0.00815121
-0.0078094
-0.00736832
-0.00686726
-0.00634399
-0.00583128
-0.00535435
-0.0049296
-0.00456481
-0.00426057
-0.00401242
-0.00381322
-0.00365511
-0.00353094
-0.00343487
-0.00336242
-0.00331009
-0.00327484
-0.00325383
-0.00324426
-0.00324325
-0.00324797
-0.00325581
-0.00326445
-0.00327184
-0.00327628
-0.00327638
-0.00327107
-0.00325959
-0.00324152
-0.00321674
-0.00318542
-0.003148
-0.00310513
-0.00305763
-0.00300644
-0.00295252
-0.00289688
-0.00284045
-0.0027841
-0.00272859
-0.00267454
-0.00262248
-0.00257277
-0.00252568
-0.00248136
-0.00243984
-0.00240109
-0.00236502
-0.00233147
-0.00230025
-0.00227114
-0.00224392
-0.00221834
-0.00219417
-0.00217118
-0.00214917
-0.00212791
-0.00210724
-0.00208697
-0.00206695
-0.00204704
-0.00202713
-0.0020071
-0.00198686
-0.00196634
-0.00194547
-0.00192419
-0.00190246
-0.00188025
-0.00185752
-0.00183425
-0.00181043
-0.00178605
-0.00176109
-0.00173555
-0.00170941
-0.00168266
-0.00165527
-0.00162722
-0.00159845
-0.00156891
-0.00153851
-0.00150716
-0.00147475
-0.00144117
-0.00140633
-0.00137015
-0.00133264
-0.00129392
-0.0012542
-0.00121431
-0.00117621
-0.00112974
0.00184267
0.00173974
0.00162315
0.0015138
0.00140776
0.00130017
0.00118834
0.00107017
0.000943449
0.000805825
0.000654783
0.000487568
0.000301139
9.21539e-05
-0.000142985
-0.000408035
-0.000706764
-0.00104276
-0.00141918
-0.00183852
-0.00230232
-0.00281089
-0.00336306
-0.00395597
-0.00458487
-0.00524306
-0.00592184
-0.00661063
-0.0072971
-0.00796742
-0.00860664
-0.00919904
-0.00972857
-0.0101793
-0.0105361
-0.0107847
-0.0109126
-0.0109092
-0.0107662
-0.0104782
-0.0100425
-0.00945995
-0.00873474
-0.00787459
-0.00689016
-0.00579518
-0.00460622
-0.0033423
-0.00202438
-0.000674861
0.000683107
0.00202621
0.00333162
0.0045776
0.00574398
0.00681261
0.00776758
0.00859538
0.00928487
0.00982716
0.0102154
0.0104444
0.0105106
0.0104114
0.0101457
0.00971406
0.00911851
0.0083634
0.00745532
0.00640384
0.00522216
0.0039274
0.00254091
0.00108825
-0.0004011
-0.00189426
-0.00335581
-0.00474898
-0.00603699
-0.00718477
-0.00816055
-0.00893703
-0.00949482
-0.00982353
-0.00992328
-0.00980533
-0.00949228
-0.00901718
-0.00842134
-0.00775086
-0.00705237
-0.0063684
-0.00573339
-0.0051711
-0.00469378
-0.00430337
-0.00399395
-0.003755
-0.00357428
-0.00344018
-0.00334291
-0.00327484
-0.00323018
-0.00320431
-0.00319335
-0.00319384
-0.0032025
-0.00321629
-0.00323244
-0.00324854
-0.00326251
-0.00327263
-0.00327751
-0.0032761
-0.00326769
-0.00325189
-0.00322866
-0.00319824
-0.00316117
-0.00311819
-0.00307023
-0.00301832
-0.00296352
-0.0029069
-0.00284947
-0.00279214
-0.0027357
-0.00268081
-0.002628
-0.00257764
-0.00253
-0.00248521
-0.0024433
-0.00240424
-0.00236791
-0.00233415
-0.00230274
-0.00227348
-0.00224611
-0.00222041
-0.00219612
-0.00217302
-0.00215089
-0.00212953
-0.00210874
-0.00208836
-0.00206824
-0.00204822
-0.0020282
-0.00200807
-0.00198774
-0.00196713
-0.00194617
-0.00192481
-0.001903
-0.00188071
-0.00185791
-0.00183459
-0.00181071
-0.00178628
-0.00176128
-0.0017357
-0.00170953
-0.00168276
-0.00165537
-0.00162733
-0.0015986
-0.00156913
-0.00153884
-0.00150766
-0.0014755
-0.00144224
-0.0014078
-0.00137212
-0.0013352
-0.00129713
-0.00125811
-0.00121877
-0.00118042
-0.00113743
0.00221889
0.00208178
0.00193161
0.0017977
0.00167333
0.00155039
0.00142399
0.00129022
0.00114519
0.000985025
0.0008058
0.000603468
0.000373785
0.000112299
-0.000185598
-0.000524536
-0.00090897
-0.00134293
-0.00182971
-0.00237159
-0.00296945
-0.00362252
-0.00432814
-0.00508152
-0.00587566
-0.00670139
-0.00754737
-0.00840037
-0.00924549
-0.0100665
-0.0108464
-0.0115676
-0.0122126
-0.0127643
-0.0132066
-0.0135249
-0.0137062
-0.01374
-0.0136182
-0.0133355
-0.0128903
-0.0122843
-0.0115228
-0.0106145
-0.00957159
-0.00840938
-0.0071463
-0.00580331
-0.0044034
-0.00297099
-0.00153118
-0.000109078
0.00127091
0.00258579
0.00381451
0.00493841
0.00594151
0.00681061
0.00753519
0.00810721
0.00852078
0.00877176
0.00885736
0.00877567
0.00852591
0.00810841
0.00752489
0.0067791
0.00587687
0.00482698
0.00364183
0.00233798
0.000936456
-0.000537161
-0.00205297
-0.00357727
-0.00507337
-0.00650276
-0.00782647
-0.00900671
-0.0100086
-0.0108016
-0.0113624
-0.0116755
-0.0117366
-0.0115536
-0.0111462
-0.0105469
-0.00979861
-0.00895251
-0.00806313
-0.00718319
-0.00635819
-0.00562205
-0.00499479
-0.00448267
-0.00408058
-0.00377579
-0.00355195
-0.00339253
-0.00328298
-0.00321157
-0.00316934
-0.0031494
-0.00314627
-0.0031554
-0.0031729
-0.00319527
-0.00321943
-0.00324279
-0.00326314
-0.00327869
-0.00328801
-0.00329004
-0.00328411
-0.00326988
-0.0032474
-0.00321704
-0.00317943
-0.00313547
-0.0030862
-0.00303276
-0.00297634
-0.00291809
-0.00285908
-0.00280028
-0.00274252
-0.00268648
-0.00263269
-0.00258152
-0.00253322
-0.00248792
-0.00244562
-0.00240627
-0.00236972
-0.00233581
-0.00230431
-0.00227498
-0.00224757
-0.00222183
-0.00219751
-0.00217439
-0.00215223
-0.00213083
-0.00211
-0.00208957
-0.00206939
-0.00204932
-0.00202924
-0.00200904
-0.00198864
-0.00196795
-0.00194692
-0.00192549
-0.00190362
-0.00188127
-0.00185841
-0.00183502
-0.0018111
-0.00178661
-0.00176157
-0.00173595
-0.00170975
-0.00168297
-0.00165558
-0.00162755
-0.00159887
-0.00156949
-0.00153934
-0.00150835
-0.00147645
-0.00144353
-0.00140952
-0.00137435
-0.001338
-0.00130055
-0.00126216
-0.00122327
-0.00118455
-0.00114498
0.00251347
0.00234559
0.00216526
0.00200923
0.00186762
0.00172883
0.00158546
0.00143155
0.00126134
0.00106926
0.000849878
0.000597808
0.000307612
-2.6193e-05
-0.000409054
-0.000846204
-0.00134241
-0.00190167
-0.00252685
-0.00321935
-0.00397875
-0.00480256
-0.005686
-0.00662189
-0.00760068
-0.00861052
-0.00963746
-0.0106658
-0.0116783
-0.0126568
-0.0135825
-0.0144365
-0.0151999
-0.0158548
-0.0163844
-0.0167735
-0.0170088
-0.0170796
-0.0169778
-0.0166983
-0.0162401
-0.0156056
-0.0148009
-0.0138356
-0.0127236
-0.0114817
-0.0101305
-0.00869295
-0.00719437
-0.00566147
-0.00412165
-0.0026022
-0.00112942
0.000272059
0.00157999
0.00277496
0.00384074
0.00476432
0.00553579
0.00614804
0.00659624
0.00687739
0.0069897
0.00693215
0.00670426
0.00630641
0.00574004
0.00500824
0.00411617
0.00307176
0.00188664
0.000576804
-0.000837051
-0.00232934
-0.00386976
-0.00542385
-0.00695374
-0.00841932
-0.0097796
-0.0109944
-0.0120258
-0.0128404
-0.0134116
-0.0137191
-0.0137544
-0.0135208
-0.0130347
-0.0123257
-0.0114366
-0.010421
-0.00933915
-0.00825295
-0.00721914
-0.00628345
-0.00547632
-0.0048114
-0.0042871
-0.00389045
-0.00360199
-0.00340044
-0.00326597
-0.00318203
-0.00313568
-0.00311704
-0.00311844
-0.00313389
-0.00315853
-0.00318819
-0.00321938
-0.00324918
-0.00327516
-0.00329541
-0.0033084
-0.00331307
-0.00330874
-0.00329519
-0.00327253
-0.00324128
-0.00320221
-0.00315638
-0.00310496
-0.00304925
-0.00299054
-0.00293007
-0.00286899
-0.00280833
-0.00274893
-0.00269149
-0.00263654
-0.00258445
-0.00253544
-0.00248959
-0.00244692
-0.00240732
-0.00237062
-0.00233664
-0.00230512
-0.0022758
-0.00224844
-0.00222275
-0.00219849
-0.00217541
-0.00215329
-0.00213192
-0.00211111
-0.00209068
-0.00207049
-0.00205039
-0.00203028
-0.00201004
-0.00198959
-0.00196885
-0.00194776
-0.00192627
-0.00190434
-0.00188193
-0.00185901
-0.00183557
-0.00181159
-0.00178705
-0.00176196
-0.00173631
-0.00171008
-0.00168328
-0.00165589
-0.00162789
-0.00159927
-0.00156998
-0.00153998
-0.0015092
-0.00147757
-0.00144501
-0.00141143
-0.00137677
-0.00134097
-0.00130409
-0.00126626
-0.00122773
-0.00118857
-0.00115217
0.00267619
0.00248323
0.00227818
0.0021035
0.00194613
0.00179095
0.001628
0.00144915
0.00124672
0.0010134
0.00074228
0.000426662
6.00342e-05
-0.000363934
-0.000851259
-0.00140742
-0.00203706
-0.00274363
-0.00352901
-0.00439319
-0.00533392
-0.00634657
-0.00742395
-0.00855634
-0.00973162
-0.0109354
-0.0121515
-0.0133619
-0.0145477
-0.0156889
-0.0167654
-0.0177568
-0.0186435
-0.0194065
-0.0200281
-0.0204923
-0.0207855
-0.0208963
-0.0208162
-0.0205402
-0.0200677
-0.0194014
-0.0185478
-0.017518
-0.016327
-0.0149937
-0.0135404
-0.0119927
-0.0103782
-0.00872634
-0.00706719
-0.00543055
-0.0038451
-0.00233745
-0.000931456
0.000352426
0.00149743
0.00249059
0.00332254
0.00398709
0.0044806
0.0048013
0.00494862
0.00492253
0.00472312
0.00435099
0.00380736
0.00309466
0.00221742
0.00118281
1.74218e-06
-0.00131038
-0.00273311
-0.00424085
-0.00580291
-0.00738405
-0.00894528
-0.010445
-0.0118404
-0.0130889
-0.0141503
-0.0149882
-0.0155727
-0.0158807
-0.0158987
-0.0156262
-0.0150755
-0.0142728
-0.0132589
-0.0120875
-0.0108225
-0.00953258
-0.00828459
-0.00713623
-0.00612983
-0.00528885
-0.00461794
-0.00410627
-0.00373285
-0.00347238
-0.00329982
-0.00319336
-0.00313544
-0.00311257
-0.00311439
-0.00313304
-0.00316236
-0.00319737
-0.00323396
-0.00326878
-0.00329914
-0.00332291
-0.00333845
-0.00334465
-0.00334086
-0.00332691
-0.00330306
-0.00326993
-0.0032285
-0.00317996
-0.00312566
-0.00306702
-0.00300545
-0.0029423
-0.00287878
-0.00281596
-0.00275471
-0.00269574
-0.00263954
-0.00258648
-0.00253675
-0.0024904
-0.00244739
-0.0024076
-0.00237083
-0.00233685
-0.0023054
-0.00227618
-0.00224893
-0.00222337
-0.00219923
-0.00217627
-0.00215424
-0.00213295
-0.00211219
-0.0020918
-0.00207162
-0.00205153
-0.0020314
-0.00201114
-0.00199065
-0.00196987
-0.00194873
-0.00192718
-0.00190519
-0.00188272
-0.00185974
-0.00183624
-0.0018122
-0.00178761
-0.00176247
-0.00173677
-0.00171052
-0.0016837
-0.00165631
-0.00162834
-0.00159977
-0.00157059
-0.00154074
-0.00151017
-0.00147883
-0.00144662
-0.00141346
-0.00137928
-0.00134401
-0.00130764
-0.00127029
-0.00123207
-0.00119243
-0.00115879
0.00266358
0.00245305
0.00223023
0.00204112
0.00186966
0.00169757
0.00151247
0.00130411
0.00106296
0.000780086
0.000447167
5.63739e-05
-0.000399701
-0.000927984
-0.00153475
-0.00222536
-0.0030039
-0.00387286
-0.00483272
-0.00588169
-0.00701545
-0.00822707
-0.00950695
-0.010843
-0.0122207
-0.0136235
-0.0150333
-0.0164304
-0.0177941
-0.0191031
-0.0203359
-0.021471
-0.0224875
-0.0233653
-0.0240855
-0.0246314
-0.024988
-0.0251434
-0.0250883
-0.0248175
-0.0243306
-0.0236302
-0.0227235
-0.0216225
-0.0203438
-0.0189079
-0.0173395
-0.0156664
-0.0139191
-0.01213
-0.010332
-0.00855795
-0.00683921
-0.00520488
-0.00368081
-0.00228891
-0.00104679
3.23841e-05
0.000939658
0.00166973
0.00222022
0.00259076
0.0027821
0.00279539
0.00263159
0.00229153
0.00177639
0.00108817
0.000230715
-0.000789459
-0.00196211
-0.00327232
-0.0046999
-0.00621916
-0.007799
-0.00940346
-0.0109924
-0.0125229
-0.0139504
-0.0152303
-0.01632
-0.0171804
-0.0177787
-0.0180899
-0.018096
-0.0177927
-0.0171889
-0.0163071
-0.0151852
-0.0138757
-0.0124437
-0.0109622
-0.00950631
-0.00814441
-0.00693093
-0.00590052
-0.00506619
-0.00442155
-0.00394604
-0.00361156
-0.00338841
-0.00324947
-0.00317225
-0.00313915
-0.00313673
-0.0031549
-0.0031859
-0.00322375
-0.0032636
-0.0033016
-0.00333467
-0.00336044
-0.00337712
-0.00338355
-0.00337907
-0.0033636
-0.0033375
-0.00330157
-0.00325693
-0.00320496
-0.00314716
-0.00308509
-0.00302027
-0.00295414
-0.00288796
-0.00282284
-0.00275966
-0.00269911
-0.00264169
-0.0025877
-0.00253731
-0.00249052
-0.00244727
-0.00240738
-0.00237063
-0.00233674
-0.00230542
-0.00227638
-0.00224932
-0.00222394
-0.00219997
-0.00217716
-0.00215527
-0.00213408
-0.0021134
-0.00209306
-0.00207292
-0.00205284
-0.0020327
-0.00201241
-0.00199189
-0.00197106
-0.00194987
-0.00192826
-0.0019062
-0.00188366
-0.00186061
-0.00183704
-0.00181294
-0.00178829
-0.0017631
-0.00173735
-0.00171106
-0.00168422
-0.00165683
-0.00162888