/*--------------------------------*- C++ -*----------------------------------*\
  =========                 |
  \\      /  F ield         | OpenFOAM: The Open Source CFD Toolbox
   \\    /   O peration     | Website:  https://openfoam.org
    \\  /    A nd           | Version:  8
     \\/     M anipulation  |
\*---------------------------------------------------------------------------*/
FoamFile
{
    version     2.0;
    format      ascii;
    class       surfaceScalarField;
    location    "0.68";
    object      phi;
}
// * * * * * * * * * * * * * * * * * * * * * * * * * * * * * * * * * * * * * //

dimensions      [0 3 -1 0 0 0 0];

internalField   nonuniform List<scalar> 
24170
(
-2.49553e-12
2.49553e-12
5.37238e-12
-7.86791e-12
2.24184e-11
-1.7046e-11
4.68968e-11
-2.44784e-11
7.75905e-11
-3.06937e-11
1.13807e-10
-3.62163e-11
1.55147e-10
-4.13404e-11
2.01416e-10
-4.62688e-11
2.52603e-10
-5.11874e-11
3.08934e-10
-5.63308e-11
3.70952e-10
-6.20182e-11
4.39608e-10
-6.86558e-11
5.16253e-10
-7.66449e-11
6.02044e-10
-8.57906e-11
6.93835e-10
-9.17909e-11
7.59855e-10
-6.60203e-11
6.86759e-10
7.30958e-11
1.74756e-09
-1.0608e-09
-2.27582e-12
4.77135e-12
2.43107e-11
-3.44545e-11
7.88187e-11
-7.1554e-11
1.5612e-10
-1.0178e-10
2.52683e-10
-1.27257e-10
3.66248e-10
-1.49781e-10
4.95383e-10
-1.70476e-10
6.39168e-10
-1.90054e-10
7.97088e-10
-2.09107e-10
9.69032e-10
-2.28275e-10
1.15525e-09
-2.48235e-10
1.35599e-09
-2.69395e-10
1.5701e-09
-2.90753e-10
1.79026e-09
-3.05955e-10
1.9867e-09
-2.88231e-10
2.05274e-09
-1.32063e-10
1.57789e-09
5.47948e-10
3.90849e-09
-5.8304e-10
2.75736e-12
2.01399e-12
5.33201e-11
-8.50171e-11
1.51413e-10
-1.69647e-10
2.88913e-10
-2.3928e-10
4.59921e-10
-2.98264e-10
6.60354e-10
-3.50215e-10
8.87384e-10
-3.97505e-10
1.13887e-09
-4.41537e-10
1.41308e-09
-4.83315e-10
1.70845e-09
-5.23651e-10
2.02309e-09
-5.62873e-10
2.35326e-09
-5.99563e-10
2.68936e-09
-6.26852e-10
3.00515e-09
-6.21752e-10
3.22905e-09
-5.12125e-10
3.17005e-09
-7.30701e-11
2.3207e-09
1.3973e-09
6.14859e-09
8.05991e-11
1.24775e-11
-1.04635e-11
9.31818e-11
-1.65721e-10
2.4149e-10
-3.17955e-10
4.46755e-10
-4.44545e-10
7.00649e-10
-5.52158e-10
9.9702e-10
-6.46586e-10
1.33119e-09
-7.31676e-10
1.69916e-09
-8.09504e-10
2.09703e-09
-8.8119e-10
2.52037e-09
-9.46988e-10
2.96283e-09
-1.00534e-09
3.41313e-09
-1.04985e-09
3.84782e-09
-1.06155e-09
4.21527e-09
-9.89204e-10
4.40084e-09
-6.97694e-10
4.16295e-09
1.64828e-10
3.05904e-09
2.5012e-09
8.3415e-09
8.66142e-10
2.69612e-11
-3.74246e-11
1.44395e-10
-2.83156e-10
3.49846e-10
-5.23406e-10
6.30334e-10
-7.25033e-10
9.75052e-10
-8.96876e-10
1.3755e-09
-1.04703e-09
1.82463e-09
-1.18081e-09
2.3158e-09
-1.30068e-09
2.84184e-09
-1.40723e-09
3.39377e-09
-1.49891e-09
3.95846e-09
-1.57003e-09
4.51386e-09
-1.60525e-09
5.01931e-09
-1.567e-09
5.3971e-09
-1.367e-09
5.50134e-09
-8.01931e-10
5.08414e-09
5.82024e-10
3.83106e-09
3.75428e-09
1.03905e-08
1.78201e-09
4.60336e-11
-8.34582e-11
2.06959e-10
-4.44081e-10
4.76438e-10
-7.92885e-10
8.39105e-10
-1.0877e-09
1.28158e-09
-1.33935e-09
1.79272e-09
-1.55817e-09
2.36252e-09
-1.75061e-09
2.98086e-09
-1.91902e-09
3.63604e-09
-2.06241e-09
4.31288e-09
-2.17576e-09
4.98941e-09
-2.24656e-09
5.63075e-09
-2.24659e-09
6.17842e-09
-2.11467e-09
6.53351e-09
-1.72209e-09
6.53704e-09
-8.05454e-10
5.97081e-09
1.14825e-09
4.65858e-09
5.06651e-09
1.22414e-08
2.80775e-09
6.93052e-11
-1.52763e-10
2.80209e-10
-6.54985e-10
6.20092e-10
-1.13277e-09
1.07087e-09
-1.53848e-09
1.61644e-09
-1.88492e-09
2.24267e-09
-2.1844e-09
2.93605e-09
-2.44399e-09
3.68205e-09
-2.66502e-09
4.4633e-09
-2.84365e-09
5.25702e-09
-2.96948e-09
6.03103e-09
-3.02056e-09
6.73713e-09
-2.95269e-09
7.3014e-09
-2.67894e-09
7.61254e-09
-2.03323e-09
7.51727e-09
-7.10185e-10
6.84971e-09
1.81581e-09
5.55612e-09
6.3601e-09
1.38597e-08
3.93779e-09
9.61074e-11
-2.48871e-10
3.62646e-10
-9.21523e-10
7.78177e-10
-1.5483e-09
1.3213e-09
-2.0816e-09
1.97296e-09
-2.53659e-09
2.71573e-09
-2.92716e-09
3.53202e-09
-3.26028e-09
4.40214e-09
-3.53514e-09
5.30208e-09
-3.7436e-09
6.20059e-09
-3.868e-09
7.05494e-09
-3.87491e-09
7.80499e-09
-3.70274e-09
8.36622e-09
-3.24017e-09
8.62554e-09
-2.29255e-09
8.45099e-09
-5.35633e-10
7.73853e-09
2.52827e-09
6.53049e-09
7.56814e-09
1.52219e-08
5.16828e-09
1.25452e-10
-3.74323e-10
4.51765e-10
-1.24784e-09
9.46261e-10
-2.0428e-09
1.58344e-09
-2.71878e-09
2.34101e-09
-3.29416e-09
3.19796e-09
-3.78412e-09
4.13221e-09
-4.19453e-09
5.11838e-09
-4.5213e-09
6.12531e-09
-4.75053e-09
7.11313e-09
-4.85582e-09
8.02948e-09
-4.79126e-09
8.80528e-09
-4.47854e-09
9.35191e-09
-3.7868e-09
9.56469e-09
-2.50533e-09
9.34345e-09
-3.14393e-10
8.64517e-09
3.22655e-09
7.57984e-09
8.63347e-09
1.63088e-08
6.493e-09
1.55984e-10
-5.30306e-10
5.43898e-10
-1.63575e-09
1.11777e-09
-2.61667e-09
1.84718e-09
-3.44818e-09
2.70631e-09
-4.15329e-09
3.67041e-09
-4.74822e-09
4.71273e-09
-5.23684e-09
5.80201e-09
-5.61058e-09
6.90009e-09
-5.8486e-09
7.95924e-09
-5.91497e-09
8.91959e-09
-5.75161e-09
9.70741e-09
-5.26636e-09
1.02368e-08
-4.31619e-09
1.04198e-08
-2.68836e-09
1.01929e-08
-8.7504e-11
9.56647e-09
3.85302e-09
8.69279e-09
9.50714e-09
1.71017e-08
7.89989e-09
1.86128e-10
-7.16434e-10
6.34102e-10
-2.08372e-09
1.28371e-09
-3.26628e-09
2.09881e-09
-4.26328e-09
3.04991e-09
-5.10439e-09
4.10853e-09
-5.80684e-09
5.2434e-09
-6.37172e-09
6.41781e-09
-6.78499e-09
7.5874e-09
-7.01819e-09
8.69832e-09
-7.02589e-09
9.6863e-09
-6.73959e-09
1.04778e-08
-6.05785e-09
1.09958e-08
-4.83423e-09
1.11747e-08
-2.86721e-09
1.09873e-08
9.98447e-11
1.04864e-08
4.3539e-09
9.84664e-09
1.0147e-08
1.75809e-08
9.3674e-09
1.79265e-10
-8.95699e-10
5.99024e-10
-2.50348e-09
1.19936e-09
-3.86662e-09
1.94459e-09
-5.00851e-09
2.80681e-09
-5.96661e-09
3.75941e-09
-6.75945e-09
4.77299e-09
-7.3853e-09
5.81308e-09
-7.82509e-09
6.83867e-09
-8.04378e-09
7.80152e-09
-7.98873e-09
8.64677e-09
-7.58484e-09
9.31608e-09
-6.72716e-09
9.75499e-09
-5.27314e-09
9.92679e-09
-3.03901e-09
9.8341e-09
1.92538e-10
9.54494e-09
4.64306e-09
9.21234e-09
1.04796e-08
1.7728e-08
9.06528e-09
2.25068e-10
-1.12077e-09
7.46228e-10
-3.02464e-09
1.48105e-09
-4.60144e-09
2.38406e-09
-5.91152e-09
3.42054e-09
-7.00309e-09
4.55763e-09
-7.89653e-09
5.75911e-09
-8.58678e-09
6.98284e-09
-9.04881e-09
8.17957e-09
-9.24051e-09
9.29331e-09
-9.10247e-09
1.02637e-08
-8.55519e-09
1.10314e-08
-7.49487e-09
1.15485e-08
-5.79029e-09
1.17944e-08
-3.28489e-09
1.17963e-08
1.90613e-10
1.16502e-08
4.78916e-09
1.15298e-08
1.06e-08
1.75913e-08
1.16665e-08
2.7258e-10
-1.39335e-09
8.98656e-10
-3.65072e-09
1.76959e-09
-5.47237e-09
2.82862e-09
-6.97054e-09
4.03404e-09
-8.20851e-09
5.34685e-09
-9.20935e-09
6.72455e-09
-9.96448e-09
8.11832e-09
-1.04426e-08
9.47253e-09
-1.05947e-08
1.07265e-08
-1.03565e-08
1.1819e-08
-9.64765e-09
1.2696e-08
-8.37194e-09
1.33235e-08
-6.41773e-09
1.37028e-08
-3.66419e-09
1.38888e-08
4.64133e-12
1.40025e-08
4.67542e-09
1.42304e-08
1.03721e-08
1.70232e-08
1.47985e-08
3.11291e-10
-1.70464e-09
1.02093e-09
-4.36036e-09
1.99645e-09
-6.44789e-09
3.1704e-09
-8.1445e-09
4.49577e-09
-9.53388e-09
5.92966e-09
-1.06432e-08
7.42621e-09
-1.1461e-08
8.93386e-09
-1.19502e-08
1.03957e-08
-1.20566e-08
1.17527e-08
-1.17135e-08
1.29504e-08
-1.08453e-08
1.39482e-08
-9.36973e-09
1.47324e-08
-7.20193e-09
1.53303e-08
-4.26205e-09
1.58224e-08
-4.87453e-10
1.63478e-08
4.14997e-09
1.70953e-08
9.62461e-09
1.58413e-08
1.82772e-08
3.19545e-10
-2.02418e-09
1.04224e-09
-5.08305e-09
2.02539e-09
-7.43104e-09
3.19743e-09
-9.31654e-09
4.51175e-09
-1.08482e-08
5.92774e-09
-1.20592e-08
7.40338e-09
-1.29367e-08
8.89278e-09
-1.34396e-08
1.03474e-08
-1.35111e-08
1.17202e-08
-1.30864e-08
1.29736e-08
-1.20987e-08
1.40887e-08
-1.04848e-08
1.50768e-08
-8.19006e-09
1.59902e-08
-5.17541e-09
1.69282e-08
-1.42554e-09
1.80367e-08
3.04153e-09
1.94949e-08
8.16638e-09
1.38436e-08
2.14926e-08
2.5958e-10
-2.28376e-09
8.39722e-10
-5.6632e-09
1.62066e-09
-8.21197e-09
2.5446e-09
-1.02405e-08
3.57801e-09
-1.18816e-08
4.69468e-09
-1.31759e-08
5.86932e-09
-1.41113e-08
7.07583e-09
-1.46461e-08
8.28867e-09
-1.4724e-08
9.48726e-09
-1.4285e-08
1.06625e-08
-1.32739e-08
1.18247e-08
-1.1647e-08
1.30121e-08
-9.37741e-09
1.42963e-08
-6.45961e-09
1.57846e-08
-2.91392e-09
1.76155e-08
1.21065e-09
1.99464e-08
5.83548e-09
1.08547e-08
2.29353e-08
7.50566e-11
-2.35882e-09
2.32962e-10
-5.8211e-09
4.38095e-10
-8.4171e-09
6.79212e-10
-1.04816e-08
9.56804e-10
-1.21592e-08
1.27708e-09
-1.34962e-08
1.64963e-09
-1.44839e-08
2.08685e-09
-1.50834e-08
2.60501e-09
-1.52421e-08
3.2268e-09
-1.49067e-08
3.98513e-09
-1.40322e-08
4.92752e-09
-1.25894e-08
6.11983e-09
-1.05697e-08
7.64816e-09
-7.98793e-09
9.61747e-09
-4.88323e-09
1.21464e-08
-1.31825e-09
1.53582e-08
2.62369e-09
6.84315e-09
1.93697e-08
-2.946e-10
-2.06422e-09
-9.60243e-10
-5.15546e-09
-1.86551e-09
-7.51183e-09
-2.93538e-09
-9.41173e-09
-4.11244e-09
-1.09821e-08
-5.34022e-09
-1.22684e-08
-6.55701e-09
-1.32671e-08
-7.6939e-09
-1.39465e-08
-8.6745e-09
-1.42615e-08
-9.41525e-09
-1.4166e-08
-9.82603e-09
-1.36215e-08
-9.81082e-09
-1.26046e-08
-9.26887e-09
-1.11117e-08
-8.09673e-09
-9.16007e-09
-6.19155e-09
-6.78841e-09
-3.45583e-09
-4.05397e-09
1.96904e-10
-1.02904e-09
2.20335e-09
4.83671e-09
-4.2741e-10
-1.63681e-09
-1.39257e-09
-4.1903e-09
-2.71115e-09
-6.19325e-09
-4.28763e-09
-7.83525e-09
-6.05657e-09
-9.21321e-09
-7.95783e-09
-1.03671e-08
-9.92672e-09
-1.12982e-08
-1.18905e-08
-1.19826e-08
-1.37683e-08
-1.23838e-08
-1.54723e-08
-1.2462e-08
-1.69106e-08
-1.21831e-08
-1.79908e-08
-1.15245e-08
-1.86225e-08
-1.04799e-08
-1.87219e-08
-9.06073e-09
-1.8214e-08
-7.29624e-09
-1.70366e-08
-5.23144e-09
-1.51417e-08
-2.92389e-09
-4.39561e-10
-1.24988e-08
-4.54503e-10
-1.18231e-09
-1.48823e-09
-3.15658e-09
-2.91531e-09
-4.76616e-09
-4.64292e-09
-6.10765e-09
-6.60913e-09
-7.24699e-09
-8.75818e-09
-8.21808e-09
-1.10302e-08
-9.02613e-09
-1.33573e-08
-9.65555e-09
-1.56626e-08
-1.00785e-08
-1.78616e-08
-1.0263e-08
-1.98654e-08
-1.01793e-08
-2.15835e-08
-9.80635e-09
-2.29288e-08
-9.13463e-09
-2.38207e-08
-8.16882e-09
-2.41893e-08
-6.92766e-09
-2.3978e-08
-5.44274e-09
-2.31458e-08
-3.75608e-09
-1.91741e-09
-2.1668e-08
-4.01969e-10
-7.80338e-10
-1.33274e-09
-2.2258e-09
-2.6396e-09
-3.45931e-09
-4.24636e-09
-4.50089e-09
-6.10152e-09
-5.39183e-09
-8.15906e-09
-6.16055e-09
-1.03699e-08
-6.81527e-09
-1.26781e-08
-7.34739e-09
-1.50193e-08
-7.73735e-09
-1.73216e-08
-7.96064e-09
-1.95076e-08
-7.99332e-09
-2.14975e-08
-7.81649e-09
-2.32126e-08
-7.41954e-09
-2.45794e-08
-6.80199e-09
-2.5533e-08
-5.97402e-09
-2.60201e-08
-4.95571e-09
-2.60007e-08
-3.77546e-09
-2.46852e-09
-2.54496e-08
-3.14363e-10
-4.65975e-10
-1.0661e-09
-1.47406e-09
-2.14783e-09
-2.37758e-09
-3.50253e-09
-3.14619e-09
-5.08945e-09
-3.80491e-09
-6.87247e-09
-4.37753e-09
-8.81401e-09
-4.87372e-09
-1.08714e-08
-5.28998e-09
-1.29952e-08
-5.61354e-09
-1.51291e-08
-5.82681e-09
-1.72108e-08
-5.91154e-09
-1.9175e-08
-5.85229e-09
-2.09557e-08
-5.63894e-09
-2.24893e-08
-5.26829e-09
-2.37187e-08
-4.7447e-09
-2.45947e-08
-4.07971e-09
-2.5079e-08
-3.29115e-09
-2.40246e-09
-2.5145e-08
-2.21356e-10
-2.44619e-10
-7.80888e-10
-9.14531e-10
-1.61393e-09
-1.54454e-09
-2.67938e-09
-2.08074e-09
-3.94525e-09
-2.53905e-09
-5.38385e-09
-2.93892e-09
-6.96761e-09
-3.28996e-09
-8.66587e-09
-3.59172e-09
-1.04429e-08
-3.83647e-09
-1.22574e-08
-4.01233e-09
-1.40626e-08
-4.10633e-09
-1.58081e-08
-4.10681e-09
-1.74417e-08
-4.00534e-09
-1.89121e-08
-3.79792e-09
-2.01712e-08
-3.48555e-09
-2.11767e-08
-3.07418e-09
-2.18938e-08
-2.57413e-09
-1.99985e-09
-2.22964e-08
-1.39502e-10
-1.05117e-10
-5.27584e-10
-5.26449e-10
-1.13238e-09
-9.39737e-10
-1.924e-09
-1.28912e-09
-2.87721e-09
-1.58584e-09
-3.97112e-09
-1.84501e-09
-5.18624e-09
-2.07484e-09
-6.50165e-09
-2.27631e-09
-7.89303e-09
-2.44509e-09
-9.33165e-09
-2.57371e-09
-1.07844e-08
-2.65358e-09
-1.22145e-08
-2.67667e-09
-1.35832e-08
-2.63671e-09
-1.4851e-08
-2.5301e-09
-1.59802e-08
-2.35631e-09
-1.69364e-08
-2.11799e-09
-1.769e-08
-1.82058e-09
-1.4722e-09
-1.82176e-08
-7.5995e-11
-2.9122e-11
-3.27056e-10
-2.75389e-10
-7.42288e-10
-5.24504e-10
-1.29914e-09
-7.3227e-10
-1.97787e-09
-9.07106e-10
-2.76313e-09
-1.05975e-09
-3.64171e-09
-1.19626e-09
-4.60013e-09
-1.3179e-09
-5.62276e-09
-1.42246e-09
-6.69083e-09
-1.50564e-09
-7.78213e-09
-1.56228e-09
-8.87142e-09
-1.58738e-09
-9.9313e-09
-1.57683e-09
-1.09334e-08
-1.52796e-09
-1.18499e-08
-1.43986e-09
-1.26544e-08
-1.31344e-09
-1.33238e-08
-1.15127e-09
-9.57345e-10
-1.38386e-08
-3.22156e-11
3.09365e-12
-1.82274e-10
-1.2533e-10
-4.49763e-10
-2.57015e-10
-8.1729e-10
-3.64742e-10
-1.26998e-09
-4.54417e-10
-1.79712e-09
-5.32618e-10
-2.3903e-09
-6.03076e-10
-3.04142e-09
-6.66773e-10
-3.74116e-09
-7.22718e-10
-4.47806e-09
-7.68737e-10
-5.23821e-09
-8.02127e-10
-6.00541e-09
-8.20186e-10
-6.76162e-09
-8.20616e-10
-7.48778e-09
-8.01801e-10
-8.16466e-09
-7.62981e-10
-8.77378e-09
-7.0432e-10
-9.2982e-09
-6.26845e-10
-5.322e-10
-9.72334e-09
-6.41313e-12
9.50678e-12
-8.69327e-11
-4.4811e-11
-2.44255e-10
-9.9692e-11
-4.65409e-10
-1.43588e-10
-7.40133e-10
-1.79693e-10
-1.06161e-09
-2.1114e-10
-1.425e-09
-2.39685e-10
-1.82593e-09
-2.65841e-10
-2.25939e-09
-2.89258e-10
-2.71907e-09
-3.09064e-10
-3.19705e-09
-3.24143e-10
-3.68388e-09
-3.33354e-10
-4.1688e-09
-3.35694e-10
-4.64019e-09
-3.30416e-10
-5.08607e-09
-3.17106e-10
-5.49467e-09
-2.9571e-10
-5.855e-09
-2.66515e-10
-2.3001e-10
-6.15719e-09
4.83538e-12
4.6714e-12
-3.10466e-11
-8.92899e-12
-1.08869e-10
-2.18695e-11
-2.20489e-10
-3.19686e-11
-3.60027e-10
-4.01543e-11
-5.23889e-10
-4.72783e-11
-7.09771e-10
-5.38029e-11
-9.1574e-10
-5.9872e-11
-1.13958e-09
-6.54156e-11
-1.37841e-09
-7.0235e-11
-1.62849e-09
-7.40686e-11
-1.8852e-09
-7.66426e-11
-2.14318e-09
-7.77093e-11
-2.39652e-09
-7.70752e-11
-2.63901e-09
-7.46182e-11
-2.86442e-09
-7.02965e-11
-3.06681e-09
-6.41251e-11
-5.61747e-11
-3.24065e-09
4.6714e-12
-4.25759e-12
-2.61271e-11
-5.80957e-11
-9.82501e-11
-1.45528e-10
-1.99331e-10
-2.59203e-10
-3.24619e-10
-3.94854e-10
-4.68922e-10
-5.45565e-10
-6.23274e-10
-7.0035e-10
-7.74968e-10
-8.45264e-10
-9.09389e-10
-9.65564e-10
7.39099e-11
-7.39099e-11
2.64362e-10
-1.90452e-10
5.28783e-10
-2.6442e-10
8.2439e-10
-2.95607e-10
1.11583e-09
-2.91443e-10
1.37539e-09
-2.59554e-10
1.58223e-09
-2.06844e-10
1.72149e-09
-1.39255e-10
1.78314e-09
-6.1654e-11
1.76084e-09
2.22986e-11
1.65116e-09
1.09684e-10
1.45234e-09
1.98816e-10
1.16374e-09
2.88605e-10
7.85073e-10
3.78664e-10
3.15967e-10
4.69106e-10
-2.4443e-10
5.60397e-10
-8.9764e-10
6.5321e-10
-1.64589e-09
7.4825e-10
-2.492e-09
8.46114e-10
-3.43922e-09
9.47215e-10
-4.49089e-09
1.05167e-09
-5.65012e-09
1.15923e-09
-6.91937e-09
1.26925e-09
-8.30007e-09
1.38069e-09
-9.79215e-09
1.49209e-09
-1.13937e-08
1.6016e-09
-1.31008e-08
1.70704e-09
-1.49067e-08
1.80593e-09
-1.68023e-08
1.89555e-09
-1.87752e-08
1.97297e-09
-2.08104e-08
2.03518e-09
-2.28896e-08
2.07916e-09
-2.49915e-08
2.10194e-09
-2.70922e-08
2.10073e-09
-2.91653e-08
2.07305e-09
-3.11821e-08
2.01679e-09
-3.31124e-08
1.93035e-09
-3.49252e-08
1.81272e-09
-3.65887e-08
1.66355e-09
-3.80719e-08
1.48322e-09
-3.93448e-08
1.27287e-09
-4.03792e-08
1.03439e-09
-4.11496e-08
7.70375e-10
-4.16337e-08
4.84137e-10
-4.18136e-08
1.79892e-10
-4.16738e-08
-1.3976e-10
-4.12057e-08
-4.68143e-10
-4.04051e-08
-8.00573e-10
-3.92728e-08
-1.13236e-09
-3.78142e-08
-1.45852e-09
-3.60398e-08
-1.77442e-09
-3.3964e-08
-2.07585e-09
-3.16048e-08
-2.35914e-09
-2.89837e-08
-2.62117e-09
-2.61242e-08
-2.8595e-09
-2.30519e-08
-3.0723e-09
-1.97935e-08
-3.25832e-09
-1.63767e-08
-3.41683e-09
-1.28292e-08
-3.54748e-09
-9.17908e-09
-3.65016e-09
-5.4543e-09
-3.72478e-09
-1.68335e-09
-3.77095e-09
2.10513e-09
-3.78847e-09
5.88198e-09
-3.77685e-09
9.61648e-09
-3.7345e-09
1.32765e-08
-3.66001e-09
1.68284e-08
-3.55196e-09
2.02369e-08
-3.40848e-09
2.34645e-08
-3.22759e-09
2.64721e-08
-3.00757e-09
2.92193e-08
-2.74719e-09
3.16654e-08
-2.4461e-09
3.37705e-08
-2.1051e-09
3.5497e-08
-1.72649e-09
3.68113e-08
-1.31428e-09
3.76856e-08
-8.74394e-10
3.81008e-08
-4.15148e-10
3.8044e-08
5.68082e-11
3.75204e-08
5.23601e-10
3.65424e-08
9.78003e-10
3.5137e-08
1.40543e-09
3.3344e-08
1.79292e-09
3.12157e-08
2.12832e-09
2.88145e-08
2.40119e-09
2.62109e-08
2.60363e-09
2.34799e-08
2.73101e-09
2.06975e-08
2.78239e-09
1.79368e-08
2.76071e-09
1.52642e-08
2.67255e-09
1.27367e-08
2.52757e-09
1.0399e-08
2.33762e-09
8.28332e-09
2.11572e-09
6.40845e-09
1.87487e-09
4.78132e-09
1.62712e-09
3.39853e-09
1.38279e-09
2.24839e-09
1.15014e-09
1.31305e-09
9.35346e-10
5.70148e-10
7.42901e-10
-5.82022e-12
5.75968e-10
-4.42536e-10
4.36716e-10
-7.6878e-10
3.26243e-10
-1.01317e-09
2.44392e-10
-1.20271e-09
1.8954e-10
-1.36118e-09
1.58468e-10
-1.50779e-09
1.46605e-10
-1.65635e-09
1.48566e-10
-1.8152e-09
1.58849e-10
-1.98768e-09
1.72475e-10
-2.17311e-09
1.85436e-10
-2.368e-09
1.9489e-10
-2.56712e-09
1.99121e-10
-2.7645e-09
1.97377e-10
-2.95413e-09
1.89633e-10
-3.1305e-09
1.76371e-10
-3.2889e-09
1.58391e-10
-3.42557e-09
1.36673e-10
-3.53784e-09
1.12274e-10
-3.6241e-09
8.62579e-11
-3.68374e-09
5.96423e-11
-3.7171e-09
3.33559e-11
-3.72537e-09
8.27128e-12
-3.71024e-09
-1.51299e-11
-3.67418e-09
-3.60641e-11
-3.61985e-09
-5.43247e-11
-3.5502e-09
-6.96546e-11
-3.46822e-09
-8.19742e-11
-3.3769e-09
-9.13264e-11
-3.27904e-09
-9.78539e-11
-3.17726e-09
-1.01777e-10
-3.07389e-09
-1.03373e-10
-2.97094e-09
-1.02949e-10
-2.87011e-09
-1.00829e-10
-2.77278e-09
-9.73327e-11
-2.68001e-09
-9.2768e-11
-2.5926e-09
-8.74171e-11
-2.51106e-09
-8.15331e-11
-2.43573e-09
-7.53359e-11
-2.36672e-09
-6.90118e-11
-2.304e-09
-6.27133e-11
-2.24744e-09
-5.65622e-11
-2.19679e-09
-5.06521e-11
-2.15174e-09
-4.50515e-11
-2.11193e-09
-3.98077e-11
-2.07698e-09
-3.49502e-11
-2.04648e-09
-3.04939e-11
-2.02004e-09
-2.64424e-11
-1.99725e-09
-2.279e-11
-1.97773e-09
-1.95247e-11
-1.9611e-09
-1.66294e-11
-1.94701e-09
-1.40833e-11
-1.93515e-09
-1.18636e-11
-1.9252e-09
-9.94629e-12
-1.9169e-09
-8.30636e-12
-1.90998e-09
-6.91874e-12
-1.90422e-09
-5.7587e-12
-1.89942e-09
-4.80117e-12
-1.8954e-09
-4.02038e-12
-1.89201e-09
-3.39125e-12
-1.88912e-09
-2.88732e-12
-1.88664e-09
-2.48033e-12
-1.8845e-09
-2.13975e-12
-1.88267e-09
-1.83245e-12
-1.88114e-09
-1.52389e-12
-1.87996e-09
-1.1805e-12
-1.87919e-09
-7.73311e-13
-1.87892e-09
-2.65592e-13
-1.87921e-09
2.88082e-13
-1.88007e-09
8.58561e-13
-1.88142e-09
1.3486e-12
-1.88302e-09
1.59856e-12
-1.88438e-09
1.35804e-12
-1.88473e-09
3.56338e-13
-1.88277e-09
-1.95876e-12
-1.87687e-09
-5.90262e-12
-1.86471e-09
-1.21576e-11
-1.84313e-09
-2.15845e-11
-1.80722e-09
-3.59074e-11
-1.74804e-09
-5.91859e-11
-1.65351e-09
-9.45289e-11
-2.0899e-10
-1.44452e-09
1.4655e-10
-2.2046e-10
4.69003e-10
-5.12905e-10
8.76931e-10
-6.72349e-10
1.29666e-09
-7.15339e-10
1.66627e-09
-6.61046e-10
1.93515e-09
-5.28435e-10
2.0631e-09
-3.34798e-10
2.01908e-09
-9.52302e-11
1.7797e-09
1.77718e-10
1.32802e-09
4.73986e-10
6.51766e-10
7.85935e-10
-2.57588e-10
1.10817e-09
-1.40624e-09
1.43726e-09
-2.799e-09
1.77142e-09
-4.44e-09
2.11011e-09
-6.33328e-09
2.45368e-09
-8.48296e-09
2.80289e-09
-1.08932e-08
3.15853e-09
-1.35681e-08
3.52098e-09
-1.65108e-08
3.88991e-09
-1.97231e-08
4.26399e-09
-2.32046e-08
4.6407e-09
-2.69516e-08
5.01626e-09
-3.09565e-08
5.38562e-09
-3.52069e-08
5.74249e-09
-3.96849e-08
6.07954e-09
-4.43664e-08
6.38852e-09
-4.92209e-08
6.66049e-09
-5.42115e-08
6.88615e-09
-5.92946e-08
7.05603e-09
-6.44203e-08
7.16089e-09
-6.95331e-08
7.19201e-09
-7.45727e-08
7.14152e-09
-7.94747e-08
7.00273e-09
-8.41721e-08
6.77043e-09
-8.85964e-08
6.44114e-09
-9.26794e-08
6.01335e-09
-9.63543e-08
5.48761e-09
-9.95574e-08
4.86666e-09
-1.0223e-07
4.15539e-09
-1.04317e-07
3.36078e-09
-1.05775e-07
2.49173e-09
-1.06563e-07
1.55878e-09
-1.06653e-07
5.74115e-10
-1.06024e-07
-4.49397e-10
-1.04666e-07
-1.49798e-09
-1.02578e-07
-2.55618e-09
-9.97683e-08
-3.60995e-09
-9.62551e-08
-4.64558e-09
-9.20634e-08
-5.65019e-09
-8.72258e-08
-6.61202e-09
-8.17809e-08
-7.52073e-09
-7.57725e-08
-8.36761e-09
-6.9248e-08
-9.14565e-09
-6.22579e-08
-9.84956e-09
-5.48545e-08
-1.04757e-08
-4.70908e-08
-1.1022e-08
-3.902e-08
-1.14875e-08
-3.06954e-08
-1.18722e-08
-2.21692e-08
-1.21763e-08
-1.34936e-08
-1.24004e-08
-4.72045e-09
-1.25441e-08
4.09722e-09
-1.26061e-08
1.2904e-08
-1.25836e-08
2.16426e-08
-1.24732e-08
3.02535e-08
-1.22709e-08
3.86728e-08
-1.19713e-08
4.68321e-08
-1.15677e-08
5.46574e-08
-1.10529e-08
6.20698e-08
-1.042e-08
6.89854e-08
-9.66279e-09
7.53164e-08
-8.77709e-09
8.09728e-08
-7.76146e-09
8.58644e-08
-6.61816e-09
8.99042e-08
-5.35405e-09
9.30112e-08
-3.98134e-09
9.51141e-08
-2.51811e-09
9.61591e-08
-9.88199e-10
9.61069e-08
5.75838e-10
9.49475e-08
2.13743e-09
9.26963e-08
3.65657e-09
8.93999e-08
5.08933e-09
8.51366e-08
6.39165e-09
8.00164e-08
7.5214e-09
7.41785e-08
8.44154e-09
6.77862e-08
9.12323e-09
6.10201e-08
9.54855e-09
5.40682e-08
9.71259e-09
4.71165e-08
9.62424e-09
4.03383e-08
9.30574e-09
3.38853e-08
8.79063e-09
2.78804e-08
8.12061e-09
2.24138e-08
7.3415e-09
1.75417e-08
6.49918e-09
1.32885e-08
5.63602e-09
9.65013e-09
4.78852e-09
6.59923e-09
3.98625e-09
4.09009e-09
3.25204e-09
2.06326e-09
2.6028e-09
4.49788e-10
2.05019e-09
-8.24765e-10
1.6008e-09
-1.83598e-09
1.25561e-09
-2.65593e-09
1.00949e-09
-3.34893e-09
8.5147e-10
-3.96802e-09
7.65699e-10
-4.55285e-09
7.33392e-10
-5.12922e-09
7.35214e-10
-5.71023e-09
7.53485e-10
-6.29852e-09
7.73729e-10
-6.88902e-09
7.85394e-10
-7.47174e-09
7.8184e-10
-8.03418e-09
7.59821e-10
-8.5633e-09
7.18752e-10
-9.04688e-09
6.59952e-10
-9.47448e-09
5.85987e-10
-9.83796e-09
5.00149e-10
-1.01317e-08
4.06067e-10
-1.03529e-08
3.07424e-10
-1.0501e-08
2.07742e-10
-1.05779e-08
1.1023e-10
-1.05873e-08
1.77068e-11
-1.05348e-08
-6.76632e-11
-1.04269e-08
-1.43996e-10
-1.0271e-08
-2.1017e-10
-1.00752e-08
-2.65508e-10
-9.84731e-09
-3.0982e-10
-9.59531e-09
-3.4333e-10
-9.32656e-09
-3.66605e-10
-9.04786e-09
-3.80474e-10
-8.76529e-09
-3.85948e-10
-8.48409e-09
-3.84144e-10
-8.2087e-09
-3.76224e-10
-7.94269e-09
-3.6334e-10
-7.68887e-09
-3.46587e-10
-7.44931e-09
-3.26978e-10
-7.22542e-09
-3.05418e-10
-7.01806e-09
-2.82697e-10
-6.82759e-09
-2.59484e-10
-6.65397e-09
-2.36331e-10
-6.49686e-09
-2.1368e-10
-6.35563e-09
-1.91873e-10
-6.22952e-09
-1.71163e-10
-6.1176e-09
-1.51728e-10
-6.01887e-09
-1.33681e-10
-5.93228e-09
-1.17082e-10
-5.85677e-09
-1.01951e-10
-5.79129e-09
-8.82723e-11
-5.73481e-09
-7.60072e-11
-5.68634e-09
-6.50976e-11
-5.64495e-09
-5.54721e-11
-5.60977e-09
-4.70506e-11
-5.57996e-09
-3.97476e-11
-5.5548e-09
-3.34739e-11
-5.53358e-09
-2.81396e-11
-5.51568e-09
-2.36542e-11
-5.50056e-09
-1.99268e-11
-5.48771e-09
-1.68659e-11
-5.47672e-09
-1.43786e-11
-5.46724e-09
-1.23682e-11
-5.45899e-09
-1.07323e-11
-5.45177e-09
-9.36103e-12
-5.44546e-09
-8.13712e-12
-5.44005e-09
-6.94028e-12
-5.43557e-09
-5.65655e-12
-5.43215e-09
-4.19547e-12
-5.4299e-09
-2.51761e-12
-5.42891e-09
-6.9681e-13
-5.42913e-09
1.07769e-12
-5.43018e-09
2.39755e-12
-5.43123e-09
2.64837e-12
-5.43081e-09
9.35178e-13
-5.42651e-09
-3.94343e-12
-5.415e-09
-1.34616e-11
-5.39156e-09
-2.93423e-11
-5.34996e-09
-5.37596e-11
-5.28191e-09
-8.96364e-11
-5.1758e-09
-1.42015e-10
-5.01479e-09
-2.20199e-10
-4.76884e-09
-3.40481e-10
-5.82298e-10
-4.39553e-09
1.28501e-10
-3.4896e-10
3.81409e-10
-7.65813e-10
6.55163e-10
-9.46103e-10
8.67717e-10
-9.27894e-10
9.51915e-10
-7.45243e-10
8.5265e-10
-4.29171e-10
5.2491e-10
-7.05765e-12
-6.74988e-11
4.97179e-10
-9.53683e-10
1.0639e-09
-2.15666e-09
1.67696e-09
-3.69457e-09
2.32384e-09
-5.58173e-09
2.99533e-09
-7.82956e-09
3.68508e-09
-1.04472e-08
4.38911e-09
-1.34423e-08
5.10518e-09
-1.68208e-08
5.83215e-09
-2.05872e-08
6.56927e-09
-2.4744e-08
7.31541e-09
-2.92915e-08
8.06844e-09
-3.42263e-08
8.82469e-09
-3.95407e-08
9.57846e-09
-4.52219e-08
1.03219e-08
-5.12503e-08
1.10447e-08
-5.75992e-08
1.17345e-08
-6.42338e-08
1.23771e-08
-7.11107e-08
1.29564e-08
-7.81779e-08
1.34557e-08
-8.53748e-08
1.38574e-08
-9.26329e-08
1.41443e-08
-9.98768e-08
1.42999e-08
-1.07025e-07
1.4309e-08
-1.13991e-07
1.41584e-08
-1.20687e-07
1.38377e-08
-1.27024e-07
1.33392e-08
-1.32912e-07
1.26587e-08
-1.38267e-07
1.17957e-08
-1.43007e-07
1.07534e-08
-1.47058e-07
9.53874e-09
-1.50354e-07
8.16239e-09
-1.52836e-07
6.6383e-09
-1.54459e-07
4.98347e-09
-1.55185e-07
3.21751e-09
-1.54988e-07
1.36214e-09
-1.53855e-07
-5.59063e-10
-1.51783e-07
-2.52162e-09
-1.4878e-07
-4.50036e-09
-1.44866e-07
-6.4709e-09
-1.40066e-07
-8.40989e-09
-1.34416e-07
-1.02953e-08
-1.27959e-07
-1.21072e-08
-1.20744e-07
-1.38275e-08
-1.12823e-07
-1.54411e-08
-1.04255e-07
-1.69355e-08
-9.51e-08
-1.83012e-08
-8.5418e-08
-1.95315e-08
-7.52714e-08
-2.06224e-08
-6.47212e-08
-2.15722e-08
-5.38276e-08
-2.23811e-08
-4.26494e-08
-2.30504e-08
-3.12438e-08
-2.35819e-08
-1.96668e-08
-2.39773e-08
-7.97373e-09
-2.42372e-08
3.77999e-09
-2.43599e-08
1.55367e-08
-2.43404e-08
2.7236e-08
-2.41724e-08
3.8814e-08
-2.38489e-08
5.02017e-08
-2.33589e-08
6.13236e-08
-2.26896e-08
7.20972e-08
-2.18265e-08
8.24319e-08
-2.07547e-08
9.22293e-08
-1.94602e-08
1.01384e-07
-1.79313e-08
1.09782e-07
-1.61602e-08
1.17309e-07
-1.41445e-08
1.23843e-07
-1.18887e-08
1.29268e-07
-9.40608e-09
1.3347e-07
-6.7197e-09
1.36345e-07
-3.86373e-09
1.37805e-07
-8.84404e-10
1.37784e-07
2.15854e-09
1.36246e-07
5.19475e-09
1.33191e-07
8.1444e-09
1.28661e-07
1.09218e-08
1.22743e-07
1.34391e-08
1.15573e-07
1.56115e-08
1.07333e-07
1.73634e-08
9.82457e-08
1.86359e-08
8.8566e-08
1.93923e-08
7.85672e-08
1.9623e-08
6.85251e-08
1.93479e-08
5.87009e-08
1.86148e-08
4.9326e-08
1.74955e-08
4.05893e-08
1.60782e-08
3.26299e-08
1.44586e-08
2.55341e-08
1.27318e-08
1.93383e-08
1.09843e-08
1.4034e-08
9.29048e-09
9.57598e-09
7.71011e-09
5.88976e-09
6.28903e-09
2.88021e-09
5.05973e-09
4.39421e-10
4.04159e-09
-1.54544e-09
3.24046e-09
-3.18404e-09
2.64809e-09
-4.5755e-09
2.24293e-09
-5.80288e-09
1.99307e-09
-6.92976e-09
1.86027e-09
-7.99945e-09
1.80491e-09
-9.03647e-09
1.7905e-09
-1.00496e-08
1.78689e-09
-1.1036e-08
1.77178e-09
-1.1985e-08
1.7308e-09
-1.28817e-08
1.65658e-09
-1.37102e-08
1.54726e-09
-1.44553e-08
1.40505e-09
-1.51042e-08
1.23483e-09
-1.56471e-08
1.04308e-09
-1.60781e-08
8.37018e-10
-1.63946e-08
6.24003e-10
-1.6598e-08
4.11059e-10
-1.66923e-08
2.04546e-10
-1.66845e-08
9.9473e-12
-1.65838e-08
-1.68371e-10
-1.64008e-08
-3.27037e-10
-1.61471e-08
-4.63876e-10
-1.58348e-08
-5.77744e-10
-1.54762e-08
-6.68448e-10
-1.50829e-08
-7.36614e-10
-1.4666e-08
-7.83531e-10
-1.42355e-08
-8.10992e-10
-1.38003e-08
-8.21136e-10
-1.33681e-08
-8.16299e-10
-1.29455e-08
-7.98891e-10
-1.25375e-08
-7.71284e-10
-1.21484e-08
-7.35734e-10
-1.1781e-08
-6.94317e-10
-1.14376e-08
-6.48892e-10
-1.11192e-08
-6.01079e-10
-1.08264e-08
-5.52252e-10
-1.05592e-08
-5.03547e-10
-1.0317e-08
-4.55876e-10
-1.00989e-08
-4.09946e-10
-9.9038e-09
-3.66283e-10
-9.73027e-09
-3.25259e-10
-9.57684e-09
-2.87113e-10
-9.44194e-09
-2.51978e-10
-9.324e-09
-2.19896e-10
-9.22142e-09
-1.90846e-10
-9.13268e-09
-1.6475e-10
-9.05628e-09
-1.41492e-10
-8.99083e-09
-1.20929e-10
-8.93498e-09
-1.02898e-10
-8.8875e-09
-8.72233e-11
-8.84726e-09
-7.37224e-11
-8.81319e-09
-6.2209e-11
-8.78435e-09
-5.24952e-11
-8.75988e-09
-4.43926e-11
-8.73903e-09
-3.77112e-11
-8.72116e-09
-3.22573e-11
-8.70569e-09
-2.783e-11
-8.69221e-09
-2.4218e-11
-8.68037e-09
-2.11966e-11
-8.66998e-09
-1.85294e-11
-8.66094e-09
-1.59775e-11
-8.65328e-09
-1.33215e-11
-8.64707e-09
-1.04004e-11
-8.64242e-09
-7.17284e-12
-8.63931e-09
-3.80161e-12
-8.63749e-09
-7.4112e-13
-8.63624e-09
1.14568e-12
-8.63411e-09
5.13567e-13
-8.62865e-09
-4.52354e-12
-8.61615e-09
-1.64406e-11
-8.59138e-09
-3.82368e-11
-8.54724e-09
-7.34823e-11
-8.47455e-09
-1.26451e-10
-8.36153e-09
-2.02652e-10
-8.1931e-09
-3.10444e-10
-7.94946e-09
-4.63841e-10
-7.602e-09
-6.87942e-10
-1.03104e-09
-7.15326e-09
4.92844e-11
-3.98245e-10
8.80331e-11
-8.04562e-10
2.71389e-11
-8.85208e-10
-2.04986e-10
-6.95768e-10
-6.66703e-10
-2.83526e-10
-1.40613e-09
3.1026e-10
-2.46322e-09
1.05003e-09
-3.87161e-09
1.90557e-09
-5.65939e-09
2.85168e-09
-7.8503e-09
3.86787e-09
-1.04644e-08
4.9379e-09
-1.35183e-08
6.04927e-09
-1.70259e-08
7.19266e-09
-2.0998e-08
8.36121e-09
-2.54425e-08
9.54968e-09
-3.03639e-08
1.07536e-08
-3.5763e-08
1.19683e-08
-4.16357e-08
1.31881e-08
-4.79723e-08
1.4405e-08
-5.47564e-08
1.56089e-08
-6.19641e-08
1.67861e-08
-6.95624e-08
1.79202e-08
-7.75092e-08
1.89915e-08
-8.57523e-08
1.99776e-08
-9.42297e-08
2.08544e-08
-1.0287e-07
2.15963e-08
-1.11592e-07
2.21776e-08
-1.20307e-07
2.25731e-08
-1.28922e-07
2.27595e-08
-1.37338e-07
2.27159e-08
-1.45455e-07
2.24252e-08
-1.5317e-07
2.18741e-08
-1.60387e-07
2.10541e-08
-1.6701e-07
1.99621e-08
-1.72951e-07
1.85999e-08
-1.7813e-07
1.69748e-08
-1.82476e-07
1.50992e-08
-1.85927e-07
1.29901e-08
-1.88434e-07
1.0669e-08
-1.89957e-07
8.16139e-09
-1.90469e-07
5.4956e-09
-1.89954e-07
2.70272e-09
-1.88408e-07
-1.8404e-10
-1.85837e-07
-3.13034e-09
-1.82257e-07
-6.10165e-09
-1.77693e-07
-9.06449e-09
-1.72177e-07
-1.19864e-08
-1.65751e-07
-1.48365e-08
-1.5846e-07
-1.75863e-08
-1.50357e-07
-2.02102e-08
-1.41498e-07
-2.26857e-08
-1.31945e-07
-2.49942e-08
-1.2176e-07
-2.71212e-08
-1.11005e-07
-2.90559e-08
-9.97447e-08
-3.07916e-08
-8.80418e-08
-3.23253e-08
-7.5957e-08
-3.36571e-08
-6.35486e-08
-3.47895e-08
-5.08726e-08
-3.57264e-08
-3.7982e-08
-3.64725e-08
-2.49279e-08
-3.70315e-08
-1.17596e-08
-3.74055e-08
1.47434e-09
-3.75938e-08
1.47251e-08
-3.75912e-08
2.7941e-08
-3.73883e-08
4.10652e-08
-3.69731e-08
5.4036e-08
-3.63297e-08
6.67845e-08
-3.54382e-08
7.92338e-08
-3.42758e-08
9.12977e-08
-3.28186e-08
1.0288e-07
-3.10429e-08
1.13876e-07
-2.89271e-08
1.2417e-07
-2.64542e-08
1.33639e-07
-2.36135e-08
1.42153e-07
-2.04028e-08
1.49578e-07
-1.68308e-08
1.55777e-07
-1.29193e-08
1.60618e-07
-8.70444e-09
1.63973e-07
-4.23932e-09
1.65727e-07
4.04769e-10
1.65785e-07
5.13694e-09
1.64082e-07
9.84693e-09
1.60594e-07
1.44101e-08
1.55342e-07
1.86911e-08
1.48404e-07
2.25496e-08
1.39918e-07
2.58493e-08
1.30085e-07
2.84689e-08
1.19164e-07
3.03133e-08
1.07462e-07
3.13251e-08
9.53167e-08
3.1493e-08
8.30766e-08
3.08549e-08
7.10757e-08
2.94964e-08
5.96119e-08
2.7542e-08
4.89284e-08
2.51421e-08
3.92027e-08
2.24575e-08
3.05424e-08
1.96447e-08
2.2988e-08
1.68449e-08
1.6521e-08
1.41771e-08
1.10744e-08
1.17357e-08
6.54459e-09
9.58955e-09
2.80391e-09
7.78227e-09