/*--------------------------------*- C++ -*----------------------------------*\
  =========                 |
  \\      /  F ield         | OpenFOAM: The Open Source CFD Toolbox
   \\    /   O peration     | Website:  https://openfoam.org
    \\  /    A nd           | Version:  8
     \\/     M anipulation  |
\*---------------------------------------------------------------------------*/
FoamFile
{
    version     2.0;
    format      ascii;
    class       volVectorField;
    location    "0.68";
    object      U;
}
// * * * * * * * * * * * * * * * * * * * * * * * * * * * * * * * * * * * * * //

dimensions      [0 1 -1 0 0 0 0];

internalField   nonuniform List<vector> 
12225
(
(-9.01503e-06 1.22083e-06 0)
(-3.49913e-06 -7.28674e-07 0)
(3.71575e-05 -1.81878e-06 0)
(0.000102956 -2.80025e-06 0)
(0.000190001 -3.6742e-06 0)
(0.000295166 -4.54039e-06 0)
(0.000416905 -5.43323e-06 0)
(0.000554306 -6.39165e-06 0)
(0.000707051 -7.46038e-06 0)
(0.000875459 -8.71408e-06 0)
(0.00106074 -1.02817e-05 0)
(0.00126535 -1.23887e-05 0)
(0.00149342 -1.54466e-05 0)
(0.00175049 -2.0137e-05 0)
(0.0020409 -2.64577e-05 0)
(0.00236174 -2.7556e-05 0)
(0.00263326 -4.37713e-05 0)
(0.00053107 0.00149246 0)
(-1.83212e-05 2.98358e-06 0)
(9.10964e-06 -1.11663e-05 0)
(0.000131959 -2.51791e-05 0)
(0.00032676 -3.75977e-05 0)
(0.000582686 -4.90913e-05 0)
(0.000890913 -6.0305e-05 0)
(0.00124648 -7.1661e-05 0)
(0.00164603 -8.34799e-05 0)
(0.00208751 -9.61043e-05 0)
(0.00257006 -0.000110014 0)
(0.00309406 -0.000125905 0)
(0.00366093 -0.000144694 0)
(0.00427153 -0.000167219 0)
(0.00491952 -0.000192496 0)
(0.00557148 -0.000208563 0)
(0.00609687 -0.000145475 0)
(0.00611144 0.000305927 0)
(0.00201355 0.00369235 0)
(-2.10334e-05 3.17453e-06 0)
(3.96981e-05 -3.54811e-05 0)
(0.000248547 -7.58785e-05 0)
(0.000573235 -0.000112145 0)
(0.000996896 -0.00014594 0)
(0.0015054 -0.000178802 0)
(0.00208997 -0.00021181 0)
(0.00274398 -0.000245703 0)
(0.00346233 -0.00028117 0)
(0.00424078 -0.000319018 0)
(0.00507524 -0.000360112 0)
(0.0059597 -0.000404756 0)
(0.00688049 -0.000450402 0)
(0.00779963 -0.000483803 0)
(0.00861336 -0.000452495 0)
(0.00902652 -0.000159008 0)
(0.00840158 0.00111399 0)
(0.0035377 0.0063555 0)
(-1.87933e-05 -1.04466e-06 0)
(8.57447e-05 -7.79254e-05 0)
(0.000384255 -0.000159597 0)
(0.00083862 -0.000233751 0)
(0.00142686 -0.000303143 0)
(0.00212996 -0.000370426 0)
(0.00293491 -0.000437495 0)
(0.00383097 -0.000505495 0)
(0.00480845 -0.00057525 0)
(0.00585733 -0.000647354 0)
(0.00696516 -0.000721597 0)
(0.00811242 -0.000794825 0)
(0.00926158 -0.000854634 0)
(0.0103312 -0.000861309 0)
(0.0111402 -0.00069373 0)
(0.0112726 1.14383e-05 0)
(0.0100162 0.0023274 0)
(0.00509902 0.00919477 0)
(-1.29956e-05 -1.29204e-05 0)
(0.000144334 -0.000142481 0)
(0.000535388 -0.000280408 0)
(0.00111771 -0.000406906 0)
(0.00186495 -0.000525651 0)
(0.00275365 -0.000640443 0)
(0.00376618 -0.000753936 0)
(0.00488678 -0.000867418 0)
(0.00609964 -0.000981256 0)
(0.00738654 -0.00109467 0)
(0.00872319 -0.00120414 0)
(0.0100718 -0.00129873 0)
(0.0113657 -0.00134805 0)
(0.0124785 -0.00127203 0)
(0.0131677 -0.000863653 0)
(0.0129712 0.00039947 0)
(0.0112545 0.00379067 0)
(0.00666863 0.0119155 0)
(-4.79999e-06 -3.55114e-05 0)
(0.000212141 -0.000233504 0)
(0.000697118 -0.000442837 0)
(0.00140363 -0.000636416 0)
(0.00230143 -0.000818539 0)
(0.00336299 -0.000993995 0)
(0.00456577 -0.0011659 0)
(0.00588813 -0.00133513 0)
(0.00730674 -0.00150057 0)
(0.00879319 -0.00165832 0)
(0.0103088 -0.00179852 0)
(0.011795 -0.00189735 0)
(0.013156 -0.00189862 0)
(0.0142284 -0.00167249 0)
(0.0147375 -0.000924815 0)
(0.0142455 0.000985406 0)
(0.0122812 0.00537316 0)
(0.00821732 0.0143953 0)
(4.80235e-06 -7.16216e-05 0)
(0.000285449 -0.000355431 0)
(0.000863496 -0.000651514 0)
(0.00168783 -0.00092697 0)
(0.00272443 -0.00118647 0)
(0.00394204 -0.00143546 0)
(0.00531301 -0.00167698 0)
(0.00680916 -0.00191059 0)
(0.0083986 -0.00213232 0)
(0.0100414 -0.0023329 0)
(0.0116835 -0.00249269 0)
(0.0132461 -0.00257015 0)
(0.0146088 -0.00247764 0)
(0.0155862 -0.00203313 0)
(0.0159039 -0.000868738 0)
(0.015198 0.00172021 0)
(0.013185 0.0069737 0)
(0.00972515 0.0165919 0)
(1.49536e-05 -0.000123719 0)
(0.00036021 -0.000512363 0)
(0.00102751 -0.000910563 0)
(0.00196009 -0.00128236 0)
(0.00311998 -0.00163271 0)
(0.00447251 -0.0019673 0)
(0.00598484 -0.00228826 0)
(0.00762198 -0.0025927 0)
(0.00934298 -0.00287203 0)
(0.0110962 -0.00310919 0)
(0.0128129 -0.00327149 0)
(0.0143971 -0.003296 0)
(0.0157128 -0.0030615 0)
(0.0165699 -0.00233868 0)
(0.0167225 -0.000709294 0)
(0.0159058 0.00254065 0)
(0.0140066 0.00850669 0)
(0.0111743 0.0184774 0)
(2.49124e-05 -0.000193749 0)
(0.000432136 -0.00070764 0)
(0.00118121 -0.00122306 0)
(0.00220863 -0.00170486 0)
(0.00347215 -0.00215847 0)
(0.00493396 -0.0025893 0)
(0.00655627 -0.0029976 0)
(0.00829738 -0.00337661 0)
(0.0101076 -0.00371131 0)
(0.0119246 -0.00397443 0)
(0.0136673 -0.00411773 0)
(0.0152284 -0.00405518 0)
(0.0164666 -0.00363392 0)
(0.0172042 -0.00258834 0)
(0.0172425 -0.000477204 0)
(0.0164193 0.00337797 0)
(0.014755 0.00989778 0)
(0.0125432 0.0200263 0)
(3.40251e-05 -0.000282889 0)
(0.000496796 -0.000943311 0)
(0.00131589 -0.00159041 0)
(0.00242035 -0.00219456 0)
(0.00376336 -0.0027622 0)
(0.0053043 -0.00329793 0)
(0.00700096 -0.00379905 0)
(0.00880566 -0.00425349 0)
(0.0106612 -0.00463794 0)
(0.0124966 -0.0049131 0)
(0.0142227 -0.00501378 0)
(0.0157276 -0.0048316 0)
(0.0168757 -0.00418765 0)
(0.0175141 -0.00279472 0)
(0.0175005 -0.000215042 0)
(0.0167643 0.00416322 0)
(0.0154172 0.0110828 0)
(0.0138041 0.0212145 0)
(4.17171e-05 -0.00039145 0)
(0.000549745 -0.00121951 0)
(0.00142238 -0.00201162 0)
(0.00258121 -0.0027486 0)
(0.00397482 -0.0034388 0)
(0.0055603 -0.00408562 0)
(0.00729197 -0.00468235 0)
(0.0091175 -0.00521022 0)
(0.0109742 -0.0056362 0)
(0.0127858 -0.00590779 0)
(0.0144599 -0.00594305 0)
(0.0158876 -0.00561426 0)
(0.0169474 -0.00472479 0)
(0.0175196 -0.00298153 0)
(0.0175179 2.78736e-05 0)
(0.0169443 0.0048311 0)
(0.0159643 0.0120069 0)
(0.014921 0.0220177 0)
(4.7141e-05 -0.000508184 0)
(0.000583752 -0.00150753 0)
(0.00148578 -0.00244316 0)
(0.00266907 -0.00330928 0)
(0.00407829 -0.00411712 0)
(0.00566918 -0.00486889 0)
(0.00739413 -0.00555339 0)
(0.00919837 -0.00614468 0)
(0.0110168 -0.00660001 0)
(0.0127717 -0.0068547 0)
(0.014373 -0.00681292 0)
(0.0157199 -0.00633366 0)
(0.0167101 -0.00521266 0)
(0.0172562 -0.00316457 0)
(0.0173175 0.000185412 0)
(0.0169439 0.0052828 0)
(0.0163229 0.012576 0)
(0.0157718 0.0223844 0)
(5.13043e-05 -0.000636801 0)
(0.000602577 -0.00181896 0)
(0.00151327 -0.00290357 0)
(0.00269566 -0.00390159 0)
(0.00409096 -0.00482815 0)
(0.00565441 -0.00568432 0)
(0.00733797 -0.00645399 0)
(0.00908632 -0.00710361 0)
(0.0108344 -0.00758056 0)
(0.0125068 -0.00780874 0)
(0.0140191 -0.00768078 0)
(0.0152831 -0.00704703 0)
(0.0162178 -0.00570304 0)
(0.0167674 -0.00338033 0)
(0.0169283 0.000251198 0)
(0.0167821 0.00555668 0)
(0.0165204 0.0128738 0)
(0.0164262 0.0224137 0)
(5.40498e-05 -0.000795903 0)
(0.000601227 -0.00220073 0)
(0.00149077 -0.00346027 0)
(0.00263458 -0.00461033 0)
(0.00397149 -0.00567191 0)
(0.00545768 -0.00664488 0)
(0.00704682 -0.00750731 0)
(0.00868586 -0.00821681 0)
(0.0103135 -0.00870994 0)
(0.0118608 -0.00889928 0)
(0.0132546 -0.00866806 0)
(0.0144245 -0.00786311 0)
(0.0153147 -0.0062885 0)
(0.0159007 -0.00370407 0)
(0.0162103 0.000164801 0)
(0.016344 0.00559881 0)
(0.0164833 0.0128338 0)
(0.0168689 0.0219932 0)
(5.36484e-05 -0.000983978 0)
(0.000565792 -0.0026493 0)
(0.00138616 -0.0041062 0)
(0.00243183 -0.00542394 0)
(0.0036427 -0.00663227 0)
(0.00497853 -0.00773019 0)
(0.00639814 -0.00868959 0)
(0.00785498 -0.00945873 0)
(0.00929653 -0.00996356 0)
(0.010666 -0.0101071 0)
(0.011907 -0.00976731 0)
(0.012971 -0.0087946 0)
(0.0138287 -0.00701121 0)
(0.0144829 -0.0042154 0)
(0.014983 -0.00019453 0)
(0.0154342 0.00524988 0)
(0.0159966 0.012266 0)
(0.0168656 0.0209104 0)
(4.78264e-05 -0.00118981 0)
(0.000478506 -0.00313757 0)
(0.00115875 -0.00480183 0)
(0.002019 -0.00629136 0)
(0.00300721 -0.00764808 0)
(0.00409104 -0.00887124 0)
(0.00523924 -0.00992726 0)
(0.00641731 -0.010756 0)
(0.0075875 -0.0112749 0)
(0.00871106 -0.0113809 0)
(0.00975297 -0.0109525 0)
(0.0106888 -0.00985134 0)
(0.0115133 -0.00792612 0)
(0.0122495 -0.00501963 0)
(0.0129565 -0.000981493 0)
(0.0137313 0.0043133 0)
(0.0147055 0.0109423 0)
(0.0160298 0.0189139 0)
(3.40595e-05 -0.00138349 0)
(0.000319933 -0.00359459 0)
(0.000764522 -0.00544723 0)
(0.00132241 -0.00708944 0)
(0.00195999 -0.00857763 0)
(0.00265894 -0.00991335 0)
(0.00340354 -0.0110599 0)
(0.00417726 -0.0119518 0)
(0.00496296 -0.012502 0)
(0.0057449 -0.0126066 0)
(0.00651234 -0.0121506 0)
(0.0072644 -0.0110131 0)
(0.00801555 -0.00907314 0)
(0.00880051 -0.00621798 0)
(0.00967715 -0.00235287 0)
(0.0107255 0.00258753 0)
(0.0120446 0.00862805 0)
(0.0137446 0.0157446 0)
(1.00531e-05 -0.00150398 0)
(7.58644e-05 -0.00387724 0)
(0.000173196 -0.00584322 0)
(0.000292131 -0.00757701 0)
(0.000429129 -0.00914766 0)
(0.000586237 -0.0105612 0)
(0.000767841 -0.011782 0)
(0.000979758 -0.0127448 0)
(0.0012294 -0.0133635 0)
(0.00152676 -0.0135397 0)
(0.00188613 -0.0131693 0)
(0.00232839 -0.0121507 0)
(0.00288329 -0.0103916 0)
(0.00359104 -0.00781638 0)
(0.00450257 -0.00437261 0)
(0.0056778 -3.72165e-05 0)
(0.00718355 0.00517913 0)
(0.00909408 0.0112324 0)
(-2.57146e-05 -0.00144796 0)
(-0.000243839 -0.00374464 0)
(-0.000587486 -0.00565392 0)
(-0.00102352 -0.00734597 0)
(-0.00151894 -0.00889196 0)
(-0.00204907 -0.0103031 0)
(-0.00258897 -0.0115504 0)
(-0.00311044 -0.0125765 0)
(-0.00358183 -0.0133047 0)
(-0.00396819 -0.0136479 0)
(-0.00423153 -0.0135167 0)
(-0.00433111 -0.0128274 0)
(-0.00422378 -0.011509 0)
(-0.00386479 -0.0095098 0)
(-0.00320906 -0.00680088 0)
(-0.00221248 -0.0033795 0)
(-0.000831693 0.000730707 0)
(0.000977006 0.00547927 0)
(-5.03999e-05 -0.00118791 0)
(-0.000482967 -0.00312451 0)
(-0.00116586 -0.00477101 0)
(-0.00203683 -0.00625286 0)
(-0.0030406 -0.00762681 0)
(-0.00414084 -0.00890579 0)
(-0.00530196 -0.0100703 0)
(-0.00648359 -0.0110762 0)
(-0.00763991 -0.011862 0)
(-0.0087204 -0.0123561 0)
(-0.00967117 -0.0124841 0)
(-0.0104367 -0.0121761 0)
(-0.0109621 -0.0113731 0)
(-0.0111948 -0.0100324 0)
(-0.0110875 -0.00813123 0)
(-0.0105992 -0.00566834 0)
(-0.00969453 -0.0026646 0)
(-0.00833921 0.000838271 0)
(-5.96619e-05 -0.000896829 0)
(-0.000589064 -0.00243452 0)
(-0.00143438 -0.00378381 0)
(-0.00252318 -0.0050165 0)
(-0.00379408 -0.00617198 0)
(-0.00520868 -0.00726319 0)
(-0.00672932 -0.00827901 0)
(-0.00831292 -0.00918817 0)
(-0.00990997 -0.00994409 0)
(-0.011465 -0.0104904 0)
(-0.0129182 -0.0107672 0)
(-0.0142076 -0.0107165 0)
(-0.0152716 -0.0102887 0)
(-0.0160522 -0.00944631 0)
(-0.0164976 -0.00816756 0)
(-0.0165644 -0.00644801 0)
(-0.016217 -0.00430069 0)
(-0.0154245 -0.00175561 0)
(-5.76579e-05 -0.000618012 0)
(-0.000598825 -0.00176773 0)
(-0.00148164 -0.00281778 0)
(-0.00263552 -0.00378974 0)
(-0.00400209 -0.00470748 0)
(-0.00554527 -0.00558339 0)
(-0.00722952 -0.0064133 0)
(-0.00901423 -0.00717722 0)
(-0.0108523 -0.00784225 0)
(-0.01269 -0.00836656 0)
(-0.0144683 -0.00870398 0)
(-0.0161247 -0.00880873 0)
(-0.0175962 -0.0086399 0)
(-0.0188223 -0.00816521 0)
(-0.0197481 -0.0073638 0)
(-0.020327 -0.00622771 0)
(-0.0205206 -0.00476242 0)
(-0.0202972 -0.00298721 0)
(-4.76899e-05 -0.000387474 0)
(-0.000539877 -0.00120401 0)
(-0.00137078 -0.00198443 0)
(-0.00247829 -0.0027132 0)
(-0.00381107 -0.0034033 0)
(-0.00533662 -0.00406636 0)
(-0.00702325 -0.00470308 0)
(-0.00883543 -0.00530214 0)
(-0.0107319 -0.0058418 0)
(-0.0126648 -0.00629271 0)
(-0.0145804 -0.00662119 0)
(-0.0164206 -0.00679275 0)
(-0.0181253 -0.00677547 0)
(-0.0196355 -0.0065429 0)
(-0.020896 -0.00607633 0)
(-0.0218586 -0.00536612 0)
(-0.0224827 -0.00441231 0)
(-0.022735 -0.00322545 0)
(-3.31017e-05 -0.00021684 0)
(-0.000440824 -0.000769347 0)
(-0.001166 -0.00132293 0)
(-0.00215692 -0.00184136 0)
(-0.00336974 -0.00233158 0)
(-0.00477539 -0.00280422 0)
(-0.00634644 -0.00326271 0)
(-0.00805344 -0.00370161 0)
(-0.00986238 -0.00410754 0)
(-0.0117334 -0.00446102 0)
(-0.0136207 -0.00473883 0)
(-0.0154736 -0.00491643 0)
(-0.0172382 -0.00497036 0)
(-0.0188602 -0.00488037 0)
(-0.0202877 -0.00463107 0)
(-0.0214733 -0.00421307 0)
(-0.0223763 -0.00362347 0)
(-0.0229632 -0.00286681 0)
(-1.68547e-05 -0.00010321 0)
(-0.00032602 -0.00045828 0)
(-0.000920552 -0.000830207 0)
(-0.00175788 -0.00117715 0)
(-0.00280053 -0.00150355 0)
(-0.00402236 -0.00181857 0)
(-0.00540033 -0.00212657 0)
(-0.00691112 -0.00242563 0)
(-0.00852827 -0.00270807 0)
(-0.0102204 -0.00296176 0)
(-0.0119507 -0.00317166 0)
(-0.0136772 -0.00332143 0)
(-0.0153546 -0.00339497 0)
(-0.0169356 -0.00337789 0)
(-0.0183739 -0.00325868 0)
(-0.019626 -0.00302949 0)
(-0.0206535 -0.00268651 0)
(-0.0214244 -0.00223072 0)
(-1.44502e-06 -3.6478e-05 0)
(-0.000214087 -0.000250533 0)
(-0.000673431 -0.000483084 0)
(-0.00134346 -0.000697693 0)
(-0.0021918 -0.000897996 0)
(-0.00319534 -0.00109122 0)
(-0.00433541 -0.00128137 0)
(-0.00559448 -0.00146824 0)
(-0.00695315 -0.00164781 0)
(-0.00838818 -0.00181307 0)
(-0.00987154 -0.00195502 0)
(-0.0113706 -0.00206361 0)
(-0.0128492 -0.00212872 0)
(-0.0142686 -0.00214101 0)
(-0.01559 -0.00209267 0)
(-0.0167758 -0.00197801 0)
(-0.017792 -0.00179364 0)
(-0.0186103 -0.00153878 0)
(1.09735e-05 -4.07407e-06 0)
(-0.000118118 -0.00012161 0)
(-0.000450154 -0.000252264 0)
(-0.000953577 -0.000370798 0)
(-0.00160077 -0.000480338 0)
(-0.00237222 -0.00058587 0)
(-0.00325365 -0.000690326 0)
(-0.0042328 -0.000794085 0)
(-0.00529644 -0.000895279 0)
(-0.00642851 -0.000990289 0)
(-0.00760916 -0.00107429 0)
(-0.00881465 -0.00114176 0)
(-0.0100179 -0.00118704 0)
(-0.0111894 -0.00120476 0)
(-0.0122988 -0.0011903 0)
(-0.0133161 -0.00114007 0)
(-0.0142131 -0.00105169 0)
(-0.0149667 -0.000923955 0)
(1.8396e-05 6.38733e-06 0)
(-4.64702e-05 -4.87077e-05 0)
(-0.000265196 -0.000110067 0)
(-0.000610448 -0.000164483 0)
(-0.00106015 -0.000214191 0)
(-0.00159931 -0.000262002 0)
(-0.00221805 -0.000309592 0)
(-0.00290861 -0.000357345 0)
(-0.00366292 -0.000404546 0)
(-0.00447096 -0.000449634 0)
(-0.00532001 -0.000490451 0)
(-0.00619434 -0.000524483 0)
(-0.00707558 -0.000549094 0)
(-0.00794336 -0.000561741 0)
(-0.00877614 -0.000560161 0)
(-0.00955226 -0.000542526 0)
(-0.0102508 -0.00050752 0)
(-0.0108547 -0.00045412 0)
(1.8763e-05 5.83406e-06 0)
(-3.71952e-06 -1.32464e-05 0)
(-0.000124793 -3.35998e-05 0)
(-0.000323653 -5.1095e-05 0)
(-0.000585424 -6.68354e-05 0)
(-0.000900564 -8.19434e-05 0)
(-0.0012634 -9.70801e-05 0)
(-0.00166992 -0.00011244 0)
(-0.00211608 -0.000127841 0)
(-0.00259672 -0.000142812 0)
(-0.00310504 -0.000156677 0)
(-0.00363239 -0.000168634 0)
(-0.00416834 -0.000177822 0)
(-0.00470112 -0.000183398 0)
(-0.00521804 -0.000184589 0)
(-0.00570605 -0.000180744 0)
(-0.00615222 -0.000171339 0)
(-0.00654595 -0.000155752 0)
(1.00852e-05 2.06292e-06 0)
(8.55261e-06 -6.42211e-07 0)
(-2.93972e-05 -2.32715e-06 0)
(-9.4419e-05 -3.6739e-06 0)
(-0.000180798 -4.83279e-06 0)
(-0.000285107 -5.94084e-06 0)
(-0.000405534 -7.06996e-06 0)
(-0.000540957 -8.24671e-06 0)
(-0.000690295 -9.46409e-06 0)
(-0.000852114 -1.06908e-05 0)
(-0.0010244 -1.18772e-05 0)
(-0.00120448 -1.29623e-05 0)
(-0.00138903 -1.38775e-05 0)
(-0.00157422 -1.45533e-05 0)
(-0.0017558 -1.49231e-05 0)
(-0.00192935 -1.4933e-05 0)
(-0.00209028 -1.44966e-05 0)
(-0.0022348 -1.34825e-05 0)
(1.77297e-05 -4.06941e-05 4.9904e-24)
(0.000138865 -0.000101992 -6.82601e-24)
(0.000342282 -0.000141459 0)
(0.000597643 -0.000160338 0)
(0.000865196 -0.00016375 0)
(0.00111532 -0.000156037 4.64993e-24)
(0.00132662 -0.000140839 0)
(0.00148356 -0.000121155 0)
(0.00157523 -9.92857e-05 0)
(0.00159448 -7.68606e-05 0)
(0.00153703 -5.4911e-05 6.87508e-24)
(0.00140063 -3.40071e-05 0)
(0.00118426 -1.43453e-05 0)
(0.000887492 4.17481e-06 0)
(0.000509998 2.18613e-05 0)
(5.11644e-05 3.91539e-05 2.55343e-23)
(-0.000490173 5.65644e-05 0)
(-0.00111582 7.46261e-05 0)
(-0.00182819 9.3845e-05 0)
(-0.0026302 0.000114656 0)
(-0.00352499 0.000137394 0)
(-0.00451568 0.000162276 0)
(-0.00560501 0.000189395 0)
(-0.00679495 0.000218713 6.53517e-23)
(-0.00808638 0.000250064 -7.06654e-23)
(-0.00947865 0.000283158 7.58683e-23)
(-0.0109693 0.000317578 8.08732e-23)
(-0.0125539 0.00035279 0)
(-0.0142254 0.00038814 0)
(-0.0159744 0.000422864 -9.36531e-23)
(-0.0177888 0.000456097 -9.67693e-23)
(-0.0196535 0.000486885 0)
(-0.0215508 0.000514205 0)
(-0.0234606 0.000536996 -1.00826e-22)
(-0.0253599 0.000554189 0)
(-0.0272239 0.000564746 0)
(-0.0290259 0.000567708 9.4144e-23)
(-0.030738 0.00056224 0)
(-0.0323316 0.000547678 8.22092e-23)
(-0.033778 0.000523572 1.47545e-22)
(-0.0350491 0.00048973 0)
(-0.0361184 0.000446239 0)
(-0.0369609 0.000393463 0)
(-0.0375547 0.000332028 0)
(-0.0378808 0.000262876 0)
(-0.0379236 0.000187413 -2.18541e-23)
(-0.0376716 0.000106746 -5.97458e-23)
(-0.0371184 2.23749e-05 -9.94908e-23)
(-0.036262 -6.38688e-05 0)
(-0.0351047 -0.000150222 1.82613e-22)
(-0.0336533 -0.000235011 0)
(-0.0319184 -0.000316675 -2.66961e-22)
(-0.0299146 -0.000393812 -3.08139e-22)
(-0.0276593 -0.000465229 0)
(-0.0251727 -0.000529965 0)
(-0.0224767 -0.000587303 0)
(-0.0195951 -0.000636766 -4.5232e-22)
(-0.0165522 -0.000678088 0)
(-0.013373 -0.000711174 0)
(-0.0100827 -0.000736047 0)
(-0.00670683 -0.000752772 0)
(-0.00327098 -0.000761252 0)
(0.000198569 -0.000760973 0)
(0.00367598 -0.000751563 0)
(0.00713424 -0.00073335 0)
(0.0105442 -0.000706761 5.06586e-22)
(0.0138756 -0.000671826 0)
(0.0170965 -0.000628393 0)
(0.0201733 -0.000576329 -4.17123e-22)
(0.0230704 -0.000515625 -3.78555e-22)
(0.0257505 -0.000446487 0)
(0.0281757 -0.000369415 2.91532e-22)
(0.0303079 -0.000285279 -2.44421e-22)
(0.0321104 -0.000195367 0)
(0.0335491 -0.000101394 1.46836e-22)
(0.0345945 -5.50979e-06 0)
(0.0352235 8.9587e-05 0)
(0.0354197 0.000180819 -4.72126e-24)
(0.0351784 0.000266657 0)
(0.0345063 0.000343302 -7.73629e-23)
(0.0334207 0.000408253 0)
(0.0319517 0.000459569 1.42846e-22)
(0.0301413 0.00049581 1.68268e-22)
(0.0280422 0.000516264 1.88551e-22)
(0.0257164 0.000521056 4.07451e-22)
(0.0232317 0.000511147 -4.27993e-22)
(0.020659 0.000488251 0)
(0.0180686 0.000454674 0)
(0.0155264 0.000413111 0)
(0.0130911 0.000366403 -4.30107e-22)
(0.010811 0.000317301 -4.16617e-22)
(0.00872295 0.000268254 4.00069e-22)
(0.0068514 0.000221257 0)
(0.00520887 0.000177763 -3.62236e-22)
(0.00379729 0.000138679 -3.42764e-22)
(0.00260973 0.000104436 -3.23837e-22)
(0.00163248 7.51138e-05 0)
(0.000846719 5.05998e-05 0)
(0.000230049 3.07259e-05 0)
(-0.00024252 1.53495e-05 -2.61098e-22)
(-0.000597614 4.34583e-06 0)
(-0.000862448 -2.48627e-06 0)
(-0.00106351 -5.51502e-06 2.31693e-22)
(-0.00122503 -5.31677e-06 0)
(-0.00136757 -2.65972e-06 0)
(-0.00150688 1.5817e-06 2.16392e-22)
(-0.00165347 6.54519e-06 0)
(-0.00181276 1.14877e-05 0)
(-0.00198586 1.58511e-05 -2.09152e-22)
(-0.00217056 1.92802e-05 -2.07431e-22)
(-0.00236251 2.16018e-05 0)
(-0.00255619 2.27846e-05 2.03968e-22)
(-0.00274572 2.28938e-05 0)
(-0.00292548 2.20532e-05 -1.99765e-22)
(-0.00309046 2.04169e-05 0)
(-0.0032365 1.81515e-05 -1.94391e-22)
(-0.00336046 1.54243e-05 -1.91239e-22)
(-0.0034602 1.23966e-05 0)
(-0.00353457 9.21872e-06 0)
(-0.0035834 6.0239e-06 0)
(-0.00360736 2.93771e-06 0)
(-0.00360779 9.89811e-08 0)
(-0.00358666 -2.4941e-06 0)
(-0.00354643 -4.75564e-06 0)
(-0.00348977 -6.6459e-06 -1.59363e-22)
(-0.00341956 -8.15439e-06 1.55281e-22)
(-0.00333866 -9.28704e-06 0)
(-0.0032499 -1.00636e-05 0)
(-0.00315589 -1.05143e-05 0)
(-0.00305905 -1.06771e-05 0)
(-0.00296148 -1.05939e-05 2.74374e-22)
(-0.00286502 -1.03078e-05 0)
(-0.00277116 -9.86152e-06 -2.62506e-22)
(-0.00268112 -9.29478e-06 2.57122e-22)
(-0.00259581 -8.64376e-06 0)
(-0.00251589 -7.94011e-06 0)
(-0.00244179 -7.21072e-06 0)
(-0.00237375 -6.47766e-06 -2.38716e-22)
(-0.00231183 -5.75852e-06 -2.3475e-22)
(-0.00225595 -5.0667e-06 0)
(-0.00220596 -4.41196e-06 -2.2737e-22)
(-0.00216158 -3.80091e-06 -2.239e-22)
(-0.00212252 -3.23758e-06 2.20543e-22)
(-0.0020884 -2.72386e-06 0)
(-0.00205887 -2.26002e-06 0)
(-0.00203352 -1.84508e-06 2.10932e-22)
(-0.00201199 -1.47715e-06 0)
(-0.00199387 -1.15371e-06 0)
(-0.00197882 -8.71805e-07 0)
(-0.00196648 -6.28253e-07 0)
(-0.00195652 -4.19743e-07 -1.9549e-22)
(-0.00194864 -2.42935e-07 -1.92391e-22)
(-0.00194255 -9.45399e-08 0)
(-0.00193799 2.86413e-08 -1.86132e-22)
(-0.00193473 1.29622e-07 0)
(-0.00193255 2.10714e-07 0)
(-0.00193126 2.73796e-07 -1.7655e-22)
(-0.00193071 3.21595e-07 0)
(-0.00193076 3.5713e-07 -1.70021e-22)
(-0.00193129 3.83538e-07 0)
(-0.00193222 4.04048e-07 0)
(-0.0019335 4.21857e-07 -1.60023e-22)
(-0.00193513 4.39819e-07 0)
(-0.00193711 4.5947e-07 -1.53228e-22)
(-0.00193952 4.78529e-07 0)
(-0.00194243 4.96684e-07 0)
(-0.00194593 5.49667e-07 0)
(-0.00195008 6.31313e-07 1.39275e-22)
(-0.00195486 7.19406e-07 0)
(-0.00196011 7.86173e-07 -1.3202e-22)
(-0.00196549 8.08927e-07 0)
(-0.00197035 7.62553e-07 0)
(-0.00197362 7.01479e-07 0)
(-0.00197378 4.70094e-07 0)
(-0.00196877 2.8389e-08 0)
(-0.00195578 -6.54444e-07 0)
(-0.00193041 -1.81098e-06 0)
(-0.00188622 -4.45221e-06 1.98334e-22)
(-0.00182559 -4.66939e-06 0)
(-0.00161724 -3.27547e-05 0)
(3.29186e-05 -0.000275932 -1.75861e-23)
(0.000256623 -0.000661585 2.41797e-23)
(0.00058749 -0.000889265 0)
(0.000968393 -0.000975432 -1.61806e-23)
(0.00133187 -0.000944528 0)
(0.00162588 -0.000822236 -4.98533e-24)
(0.00181041 -0.00063205 8.9432e-24)
(0.00185419 -0.000394107 5.09172e-24)
(0.00173321 -0.000124798 0)
(0.00142957 0.00016322 -4.51592e-24)
(0.000930325 0.000460763 -7.40996e-24)
(0.000226208 0.000761615 0)
(-0.000689416 0.00106217 0)
(-0.00182157 0.00136093 0)
(-0.00317442 0.00165798 0)
(-0.00475187 0.00195447 -2.73452e-23)
(-0.00655789 0.00225209 0)
(-0.00859659 0.00255262 6.32959e-23)
(-0.0108721 0.00285753 0)
(-0.0133881 0.00316757 0)
(-0.0161475 0.00348259 -9.21179e-23)
(-0.0191514 0.0038013 0)
(-0.0223985 0.00412126 1.12672e-22)
(-0.0258845 0.00443884 -6.84746e-23)
(-0.0296009 0.00474928 7.37709e-23)
(-0.0335346 0.00504686 -7.89006e-23)
(-0.0376673 0.00532498 -8.37758e-23)
(-0.041975 0.0055764 0)
(-0.0464276 0.00579343 0)
(-0.0509892 0.00596813 9.5859e-23)
(-0.0556179 0.00609264 -8.70605e-23)
(-0.0602663 0.00615936 0)
(-0.0648822 0.0061613 0)
(-0.069409 0.00609236 1.01725e-22)
(-0.0737874 0.00594757 0)
(-0.0779556 0.00572339 0)
(-0.0818514 0.0054179 -9.42595e-23)
(-0.0854131 0.00503099 0)
(-0.0885809 0.00456446 8.21897e-23)
(-0.0912984 0.00402204 -1.47211e-22)
(-0.0935137 0.00340939 0)
(-0.0951808 0.00273393 0)
(-0.0962602 0.00200455 -1.67044e-22)
(-0.0967201 0.00123141 -1.10189e-22)
(-0.0965362 0.000425927 -4.70451e-23)
(-0.0956935 -0.000399533 9.36674e-26)
(-0.0941864 -0.00123241 6.0104e-23)
(-0.0920173 -0.00205996 2.74451e-22)
(-0.0891966 -0.00286996 -2.55975e-22)
(-0.0857429 -0.00365114 -1.85411e-22)
(-0.0816814 -0.00439337 0)
(-0.0770437 -0.00508788 2.7345e-22)
(-0.0718662 -0.00572746 -2.82499e-22)
(-0.0661897 -0.00630649 0)
(-0.060058 -0.006821 0)
(-0.0535172 -0.00726855 0)
(-0.0466147 -0.00764807 4.77658e-22)
(-0.0393982 -0.00795962 0)
(-0.0319158 -0.00820404 -1.04041e-21)
(-0.024215 -0.00838265 0)
(-0.0163431 -0.00849677 -1.12982e-21)
(-0.00834724 -0.00854721 0)
(-0.000276158 -0.00853384 1.16828e-21)
(0.00782214 -0.00845592 0)
(0.0158978 -0.00831264 -1.11055e-21)
(0.0238962 -0.00810295 5.1007e-22)
(0.0317604 -0.00782488 0)
(0.0394296 -0.00747573 9.31073e-22)
(0.046838 -0.00705264 4.45031e-22)
(0.0539146 -0.00655319 4.01728e-22)
(0.0605836 -0.00597599 0)
(0.0667647 -0.00532132 2.74429e-22)
(0.0723742 -0.00459169 2.56088e-22)
(0.0773273 -0.00379241 0)
(0.0815397 -0.00293203 -1.53029e-22)
(0.0849311 -0.00202265 1.8062e-22)
(0.0874283 -0.00108007 0)
(0.0889702 -0.000123917 4.90958e-24)
(0.0895102 0.000823921 0)
(0.0890212 0.00173845 2.51757e-22)
(0.087503 0.00259419 0)
(0.0849814 0.00336635 -4.49026e-22)
(0.0815116 0.00403181 -1.75808e-22)
(0.0771789 0.00457075 1.91872e-22)
(0.0720981 0.00496845 4.09575e-22)
(0.0664099 0.00521666 -4.26338e-22)
(0.0602749 0.0053145 0)
(0.0538665 0.00526873 0)
(0.0473616 0.00509326 0)
(0.0409305 0.00480796 1.35927e-21)
(0.0347276 0.00443685 4.56526e-22)
(0.028884 0.00400592 -4.4156e-22)
(0.0235013 0.00354093 0)
(0.0186496 0.00306539 -3.65791e-22)
(0.0143677 0.00259922 3.85724e-22)
(0.0106656 0.00215809 3.66401e-22)
(0.00752884 0.00175349 0)
(0.00492329 0.00139339 0)
(0.00279957 0.00108301 0)
(0.00109722 0.000825396 3.00294e-22)
(-0.000251495 0.000621591 0)
(-0.00131774 0.000470307 -5.41674e-22)
(-0.00217182 0.000367642 -7.92143e-22)
(-0.0028788 0.000307139 5.11663e-22)
(-0.00349468 0.000280274 0)
(-0.00406358 0.000277415 2.43515e-22)
(-0.00461645 0.000288987 0)
(-0.0051714 0.000306509 4.81809e-22)
(-0.00573536 0.000323279 -2.36493e-22)
(-0.00630657 0.000334627 -2.34834e-22)
(-0.00687724 0.000337816 0)
(-0.00743609 0.000331715 -7.02328e-22)
(-0.00797048 0.000316398 4.62873e-22)
(-0.00846792 0.000292752 2.30661e-22)
(-0.00891727 0.000262161 0)
(-0.00930933 0.000226264 2.24635e-22)
(-0.0096373 0.00018679 6.61592e-22)
(-0.00989687 0.000145432 0)
(-0.0100862 0.000103771 4.25392e-22)
(-0.0102059 6.3211e-05 4.17054e-22)
(-0.0102585 2.49514e-05 4.08324e-22)
(-0.0102482 -1.00083e-05 0)
(-0.0101809 -4.10539e-05 0)
(-0.0100632 -6.76978e-05 0)
(-0.00990248 -8.97086e-05 -1.86289e-22)
(-0.00970647 -0.000107069 -1.80724e-22)
(-0.00948279 -0.000119937 0)
(-0.00923881 -0.000128608 -3.45305e-22)
(-0.00898143 -0.000133479 -3.37183e-22)
(-0.00871691 -0.000135011 0)
(-0.00845078 -0.000133703 -3.20821e-22)
(-0.00818778 -0.000130056 -6.30463e-22)
(-0.00793182 -0.000124557 3.07523e-22)
(-0.00768606 -0.000117661 3.03796e-22)
(-0.00745292 -0.000109777 0)
(-0.00723415 -0.000101267 0)
(-0.00703088 -9.24362e-05 0)
(-0.00684376 -8.35383e-05 2.80918e-22)
(-0.00667299 -7.47771e-05 -2.77973e-22)
(-0.00651843 -6.63098e-05 -5.4587e-22)
(-0.00637965 -5.82533e-05 2.68241e-22)
(-0.006256 -5.06893e-05 -2.65389e-22)
(-0.00614668 -4.36699e-05 -2.60603e-22)
(-0.00605079 -3.72233e-05 0)
(-0.00596735 -3.13583e-05 0)
(-0.00589535 -2.60691e-05 2.50375e-22)
(-0.00583377 -2.13387e-05 0)
(-0.00578161 -1.71419e-05 0)
(-0.0057379 -1.3448e-05 -4.79019e-22)
(-0.0057017 -1.02228e-05 0)
(-0.00567214 -7.43026e-06 -2.32559e-22)
(-0.0056484 -5.03325e-06 2.28845e-22)
(-0.00562969 -2.99484e-06 0)
(-0.00561533 -1.27871e-06 -2.21773e-22)
(-0.00560466 1.50477e-07 0)
(-0.00559711 1.32647e-06 0)
(-0.00559216 2.28182e-06 2.10726e-22)
(-0.00558935 3.04972e-06 -4.13947e-22)
(-0.00558831 3.66403e-06 2.03208e-22)
(-0.00558872 4.15962e-06 0)
(-0.00559034 4.57287e-06 0)
(-0.00559302 4.94146e-06 -1.91574e-22)
(-0.00559669 5.30295e-06 0)
(-0.00560137 5.69112e-06 -1.83667e-22)
(-0.00560717 6.12908e-06 0)
(-0.00561422 6.62669e-06 0)
(-0.00562265 7.20791e-06 0)
(-0.00563254 7.81704e-06 -1.67468e-22)
(-0.00564369 8.33774e-06 0)
(-0.00565554 8.57007e-06 1.58956e-22)
(-0.00566694 8.26489e-06 0)
(-0.0056759 7.11637e-06 0)
(-0.00567947 4.8152e-06 -2.90806e-22)
(-0.00567342 7.6458e-07 2.81298e-22)
(-0.00565203 -5.60097e-06 0)
(-0.00560778 -1.50617e-05 0)
(-0.00552981 -2.91647e-05 0)
(-0.00540394 -5.10134e-05 -7.22198e-22)
(-0.00522831 -8.64378e-05 0)
(-0.00481053 -0.000172091 4.3787e-22)
(3.05184e-05 -0.000561469 -5.19995e-24)
(0.000220988 -0.00126864 -4.00796e-23)
(0.000464886 -0.00162023 0)
(0.000695944 -0.00167435 3.77917e-23)
(0.000841792 -0.00148652 0)
(0.000846448 -0.00110793 0)
(0.000665775 -0.00058377 5.1129e-24)
(0.000263969 4.72753e-05 -5.10417e-24)
(-0.000387925 0.000753426 -6.13567e-24)
(-0.00131318 0.00150943 4.51067e-24)
(-0.00253028 0.00229616 0)
(-0.00405388 0.00310001 0)
(-0.00589571 0.00391218 -1.54551e-23)
(-0.00806529 0.00472772 -4.38061e-23)
(-0.0105705 0.00554459 5.75189e-23)
(-0.0134179 0.00636266 0)
(-0.0166127 0.00718263 8.74237e-23)
(-0.0201587 0.00800505 -6.17583e-23)
(-0.0240579 0.00882947 0)
(-0.0283097 0.00965368 1.38481e-22)
(-0.0329098 0.0104732 8.90097e-23)
(-0.03785 0.0112809 -1.76284e-22)
(-0.0431165 0.0120672 -1.08115e-22)
(-0.0486893 0.0128198 0)
(-0.0545414 0.0135241 2.36563e-22)
(-0.0606385 0.0141639 2.56848e-22)
(-0.0669381 0.0147215 0)
(-0.07339 0.0151787 2.96039e-22)
(-0.0799364 0.0155171 0)
(-0.0865127 0.0157193 3.30939e-22)
(-0.0930479 0.0157688 1.7386e-22)
(-0.0994665 0.0156518 0)
(-0.105689 0.0153567 0)
(-0.111636 0.0148753 0)
(-0.117225 0.0142033 0)
(-0.122377 0.0133402 0)
(-0.127016 0.0122898 0)
(-0.131071 0.0110601 3.52195e-22)
(-0.134476 0.00966313 -4.86318e-22)
(-0.137176 0.00811484 0)
(-0.13912 0.00643448 0)
(-0.14027 0.00464407 0)
(-0.140597 0.00276778 -3.72336e-23)
(-0.140079 0.000831472 1.0349e-22)
(-0.138708 -0.00113759 1.28429e-22)
(-0.136488 -0.00311167 1.62406e-25)
(-0.133427 -0.00506401 4.86115e-23)
(-0.129545 -0.00696953 -1.64064e-22)
(-0.124869 -0.00880522 4.22399e-23)
(-0.119433 -0.0105505 -2.79466e-22)
(-0.113277 -0.0121874 0)
(-0.106447 -0.0137015 -4.4471e-22)
(-0.0989927 -0.0150812 4.26195e-23)
(-0.0909657 -0.0163185 0)
(-0.0824204 -0.0174085 0)
(-0.073412 -0.018349 7.65345e-22)
(-0.0639957 -0.0191406 0)
(-0.054226 -0.0197854 0)
(-0.0441566 -0.0202871 -9.17081e-22)
(-0.0338395 -0.0206499 -2.02532e-21)
(-0.0233259 -0.0208777 1.10048e-21)
(-0.0126663 -0.0209734 0)
(-0.00191195 -0.0209384 -1.14753e-21)
(0.00888633 -0.020772 0)
(0.0196782 -0.0204714 -9.96259e-22)
(0.0304051 -0.0200323 -1.03426e-21)
(0.0410056 -0.0194488 1.85755e-21)
(0.0514136 -0.0187132 8.16735e-22)
(0.0615561 -0.0178174 0)
(0.0713532 -0.0167533 -1.39691e-21)
(0.0807169 -0.0155145 0)
(0.0895521 -0.0140971 -1.59037e-21)
(0.0977566 -0.012501 -8.43994e-22)
(0.105223 -0.0107315 -6.51546e-22)
(0.111839 -0.00879996 4.59885e-22)
(0.117492 -0.0067251 -4.43583e-22)
(0.122073 -0.00453357 0)
(0.125476 -0.00226033 0)
(0.127611 5.04531e-05 -2.39348e-22)
(0.128397 0.00234653 -5.43727e-22)
(0.127784 0.00456994 0)
(0.125749 0.00665989 2.826e-22)
(0.122308 0.00855498 0)
(0.117516 0.0101966 -1.1265e-21)
(0.111474 0.0115332 1.98896e-23)
(0.104326 0.0125249 -1.0511e-23)
(0.0962618 0.0131472 8.51026e-22)
(0.0875037 0.0133942 0)
(0.078301 0.01328 -8.42195e-22)
(0.0689136 0.0128377 -2.25992e-23)
(0.0595969 0.0121165 0)
(0.0505858 0.0111774 0)
(0.0420809 0.0100869 0)