/*--------------------------------*- C++ -*----------------------------------*\
  =========                 |
  \\      /  F ield         | OpenFOAM: The Open Source CFD Toolbox
   \\    /   O peration     | Website:  https://openfoam.org
    \\  /    A nd           | Version:  8
     \\/     M anipulation  |
\*---------------------------------------------------------------------------*/
FoamFile
{
    version     2.0;
    format      ascii;
    class       volScalarField;
    location    "0.62";
    object      p;
}
// * * * * * * * * * * * * * * * * * * * * * * * * * * * * * * * * * * * * * //

dimensions      [0 2 -2 0 0 0 0];

internalField   nonuniform List<scalar> 
12225
(
-0.00617442
-0.00614267
-0.00611111
-0.00608666
-0.00607576
-0.00608175
-0.00610771
-0.00615665
-0.006232
-0.00633822
-0.00648179
-0.00667305
-0.00692959
-0.00728329
-0.00779396
-0.00857704
-0.00995246
-0.0132718
-0.00617411
-0.00614575
-0.00611755
-0.00609627
-0.0060884
-0.00609737
-0.00612632
-0.00617832
-0.00625688
-0.00636651
-0.00651373
-0.00670875
-0.00696838
-0.00732178
-0.0078196
-0.00855159
-0.00969109
-0.0119347
-0.00617504
-0.00614977
-0.00612528
-0.00610763
-0.00610327
-0.00611565
-0.00614799
-0.00620338
-0.00628535
-0.0063984
-0.00654887
-0.00674639
-0.00700611
-0.0073525
-0.00782333
-0.00847404
-0.00933925
-0.0107512
-0.0061775
-0.00615428
-0.00613292
-0.00611858
-0.00611743
-0.00613292
-0.00616826
-0.00622651
-0.00631113
-0.0064264
-0.00657821
-0.00677502
-0.00702934
-0.0073594
-0.00778889
-0.00834275
-0.00898778
-0.00987536
-0.00618134
-0.00615927
-0.00614043
-0.00612903
-0.00613078
-0.00614903
-0.00618693
-0.00624744
-0.00633384
-0.00645004
-0.00660112
-0.00679394
-0.00703769
-0.00734386
-0.00772321
-0.00817813
-0.00865374
-0.00920638
-0.00618633
-0.00616471
-0.00614787
-0.00613908
-0.00614341
-0.00616408
-0.00620411
-0.00626629
-0.0063536
-0.00646941
-0.00661778
-0.00680364
-0.0070326
-0.00730979
-0.00763564
-0.00799818
-0.00834036
-0.00867205
-0.00619219
-0.00617046
-0.00615512
-0.00614858
-0.00615516
-0.00617788
-0.00621955
-0.00628274
-0.00637004
-0.00648415
-0.00662792
-0.00680422
-0.0070152
-0.0072606
-0.00753351
-0.00781435
-0.00805289
-0.00824136
-0.00619858
-0.00617631
-0.00616198
-0.00615732
-0.00616577
-0.00619011
-0.00623289
-0.00629639
-0.00638272
-0.00649383
-0.00663129
-0.00679595
-0.0069869
-0.00719972
-0.00742309
-0.00763489
-0.00779533
-0.00789416
-0.00620504
-0.00618197
-0.00616821
-0.00616505
-0.00617498
-0.00620048
-0.0062438
-0.00630687
-0.00639131
-0.00649823
-0.00662797
-0.00677952
-0.00694952
-0.00713074
-0.0073098
-0.00746555
-0.00756885
-0.00761309
-0.00621102
-0.00618705
-0.00617353
-0.00617149
-0.00618249
-0.00620867
-0.00625195
-0.0063139
-0.00639558
-0.00649731
-0.00661828
-0.00675595
-0.00690516
-0.0070571
-0.00719812
-0.00730988
-0.00737252
-0.00738424
-0.00621591
-0.00619105
-0.00617758
-0.00617634
-0.00618801
-0.00621439
-0.00625707
-0.00631723
-0.00639541
-0.00649119
-0.00660279
-0.00672647
-0.00685595
-0.0069818
-0.00709123
-0.00716942
-0.0072037
-0.00719653
-0.00621878
-0.00619325
-0.00617974
-0.00617898
-0.00619091
-0.00621706
-0.0062587
-0.00631667
-0.0063911
-0.006481
-0.00658387
-0.00669523
-0.00680824
-0.00691351
-0.00699951
-0.00705444
-0.00707037
-0.00705272
-0.00621943
-0.00619406
-0.00618048
-0.00618005
-0.00619205
-0.00621766
-0.0062579
-0.00631331
-0.00638361
-0.00646737
-0.00656154
-0.00666122
-0.0067594
-0.0068472
-0.00691463
-0.0069526
-0.00695656
-0.00693221
-0.00621675
-0.00619245
-0.00617901
-0.00617884
-0.00619067
-0.00621529
-0.00625348
-0.00630549
-0.00637072
-0.00644733
-0.00653194
-0.00661943
-0.006703
-0.0067746
-0.00682593
-0.00685038
-0.00684571
-0.00681699
-0.00620841
-0.00618636
-0.00617374
-0.00617383
-0.00618519
-0.00620827
-0.00624362
-0.0062913
-0.00635048
-0.0064191
-0.00649365
-0.00656911
-0.00663915
-0.00669674
-0.00673518
-0.00674967
-0.00673911
-0.00670746
-0.00619103
-0.00617296
-0.00616242
-0.00616303
-0.00617363
-0.00619449
-0.00622608
-0.00626838
-0.00632051
-0.00638041
-0.00644473
-0.00650881
-0.00656698
-0.0066132
-0.006642
-0.00664966
-0.00663516
-0.00660091
-0.00616056
-0.00614884
-0.0061423
-0.006144
-0.00615359
-0.00617147
-0.0061982
-0.00623385
-0.00627772
-0.00632802
-0.0063818
-0.00643495
-0.00648255
-0.00651939
-0.00654073
-0.00654322
-0.00652524
-0.00648741
-0.00611357
-0.00611093
-0.00611062
-0.00611415
-0.00612239
-0.00613629
-0.00615668
-0.00618393
-0.00621768
-0.00625662
-0.00629838
-0.00633954
-0.00637587
-0.00640282
-0.00641602
-0.00641191
-0.00638799
-0.00634344
-0.00605148
-0.00605987
-0.00606692
-0.00607209
-0.00607765
-0.00608538
-0.00609648
-0.00611173
-0.00613129
-0.00615452
-0.00617982
-0.00620459
-0.0062254
-0.00623825
-0.00623902
-0.00622375
-0.00618869
-0.00613161
-0.00600528
-0.00602243
-0.00603495
-0.00604058
-0.00604252
-0.0060428
-0.00604264
-0.00604285
-0.00604384
-0.00604543
-0.00604672
-0.00604605
-0.00604102
-0.0060287
-0.00600595
-0.00596953
-0.00591586
-0.0058419
-0.00598338
-0.00600486
-0.00601992
-0.00602558
-0.00602529
-0.00602083
-0.00601312
-0.00600277
-0.00599008
-0.00597497
-0.00595683
-0.00593447
-0.0059062
-0.00586986
-0.0058231
-0.00576348
-0.00568802
-0.00559395
-0.00597794
-0.00600083
-0.0060168
-0.00602269
-0.00602152
-0.00601448
-0.00600202
-0.00598438
-0.00596159
-0.00593341
-0.00589927
-0.00585827
-0.00580912
-0.00575031
-0.0056802
-0.0055971
-0.00549893
-0.00538341
-0.00598309
-0.00600551
-0.00602158
-0.00602826
-0.00602761
-0.00602006
-0.00600557
-0.00598398
-0.00595497
-0.00591806
-0.00587256
-0.00581763
-0.00575223
-0.00567523
-0.00558549
-0.00548198
-0.0053635
-0.00522857
-0.00599349
-0.00601456
-0.00603069
-0.00603889
-0.00603998
-0.00603363
-0.00601936
-0.00599662
-0.00596477
-0.00592307
-0.00587064
-0.00580655
-0.00572985
-0.00563959
-0.00553495
-0.00541533
-0.00528025
-0.00512905
-0.00600524
-0.00602489
-0.00604156
-0.00605204
-0.0060558
-0.00605187
-0.0060394
-0.00601757
-0.00598546
-0.00594205
-0.00588627
-0.00581704
-0.00573336
-0.00563433
-0.0055193
-0.00538789
-0.0052401
-0.00507603
-0.00601587
-0.00603464
-0.00605262
-0.00606602
-0.00607305
-0.00607229
-0.00606265
-0.00604308
-0.00601245
-0.00596952
-0.00591301
-0.00584167
-0.00575437
-0.00565017
-0.00552844
-0.00538891
-0.00523181
-0.00505788
-0.00602404
-0.00604287
-0.00606305
-0.00607987
-0.00609053
-0.00609334
-0.00608708
-0.00607058
-0.00604253
-0.00600153
-0.0059461
-0.00587477
-0.00578627
-0.00567955
-0.00555392
-0.0054091
-0.00524541
-0.00506396
-0.00602916
-0.00604934
-0.00607263
-0.00609326
-0.00610776
-0.00611435
-0.00611179
-0.00609883
-0.00607409
-0.006036
-0.00598288
-0.00591308
-0.00582512
-0.0057178
-0.0055903
-0.00544229
-0.00527403
-0.00508676
-0.00603126
-0.00605412
-0.00608134
-0.00610602
-0.00612444
-0.00613486
-0.00613611
-0.00612697
-0.00610597
-0.00607142
-0.00602146
-0.00595423
-0.00586806
-0.00576153
-0.00563367
-0.00548403
-0.00531274
-0.00512101
-0.00603112
-0.0060572
-0.00608798
-0.00611603
-0.00613762
-0.00615115
-0.00615552
-0.00614955
-0.00613175
-0.00610032
-0.00605327
-0.00598858
-0.00590438
-0.0057991
-0.00567161
-0.00552133
-0.00534827
-0.0051536
0.00033146
0.000355804
0.000364843
0.000343357
0.000289436
0.000203985
8.84777e-05
-5.5097e-05
-0.00022442
-0.000417155
-0.000630905
-0.00086405
-0.00111509
-0.00138292
-0.00166675
-0.00196603
-0.00228031
-0.0026091
-0.0029517
-0.00330706
-0.00367365
-0.00404936
-0.00443132
-0.00481589
-0.00519855
-0.00557385
-0.00593544
-0.006276
-0.00658738
-0.00686059
-0.00708597
-0.00725337
-0.00735229
-0.00737222
-0.00730286
-0.00713447
-0.00685825
-0.00646663
-0.00595369
-0.00531542
-0.00455011
-0.00365851
-0.00264407
-0.00151306
-0.000274466
0.0010605
0.00247678
0.0039577
0.00548436
0.00703603
0.00859069
0.0101255
0.0116171
0.0130423
0.0143784
0.0156036
0.0166972
0.0176401
0.0184149
0.0190062
0.0194007
0.0195876
0.0195591
0.0193097
0.0188371
0.0181427
0.0172319
0.0161141
0.014803
0.013317
0.0116791
0.00991686
0.00806183
0.00614917
0.0042166
0.00230313
0.000447174
-0.00131075
-0.00293896
-0.00440741
-0.00569214
-0.00677654
-0.00765192
-0.00831777
-0.00878144
-0.0090573
-0.00916541
-0.00912993
-0.00897725
-0.00873427
-0.00842674
-0.00807802
-0.00770826
-0.00733392
-0.00696782
-0.00661942
-0.00629544
-0.00600039
-0.00573715
-0.00550732
-0.0053113
-0.00514839
-0.00501671
-0.00491329
-0.00483426
-0.00477518
-0.00473139
-0.00469834
-0.00467189
-0.0046484
-0.0046249
-0.00459901
-0.00456895
-0.00453349
-0.00449188
-0.0044438
-0.00438932
-0.00432882
-0.00426292
-0.00419246
-0.00411841
-0.00404175
-0.00396361
-0.00388498
-0.0038068
-0.00372993
-0.0036551
-0.00358289
-0.00351376
-0.00344803
-0.0033859
-0.00332744
-0.00327264
-0.0032214
-0.00317357
-0.00312891
-0.00308719
-0.00304813
-0.00301145
-0.00297686
-0.00294407
-0.00291281
-0.00288282
-0.00285386
-0.00282569
-0.00279812
-0.00277095
-0.00274402
-0.00271718
-0.00269029
-0.00266323
-0.00263592
-0.00260825
-0.00258017
-0.00255161
-0.00252251
-0.00249285
-0.00246259
-0.00243169
-0.00240016
-0.00236796
-0.00233508
-0.00230152
-0.00226723
-0.0022322
-0.00219635
-0.00215961
-0.00212185
-0.00208286
-0.00204242
-0.00200026
-0.00195606
-0.00190946
-0.00186015
-0.00180795
-0.00175275
-0.00169469
-0.00163512
-0.00157777
-0.00150084
0.000334495
0.000360592
0.000370012
0.000349057
0.000298491
0.000220478
0.000116669
-1.12522e-05
-0.000161442
-0.000332089
-0.000521793
-0.000729044
-0.000952863
-0.00119258
-0.00144775
-0.00171814
-0.00200353
-0.00230368
-0.00261818
-0.00294627
-0.00328679
-0.003638
-0.00399751
-0.00436219
-0.00472807
-0.0050903
-0.0054431
-0.00577973
-0.00609256
-0.00637304
-0.00661187
-0.00679907
-0.00692423
-0.00697669
-0.00694588
-0.00682161
-0.00659443
-0.00625603
-0.00579958
-0.00522017
-0.00451506
-0.00368409
-0.00272983
-0.00165761
-0.000475168
0.000805912
0.00217219
0.00360696
0.00509133
0.00660466
0.00812488
0.00962904
0.0110937
0.0124955
0.0138114
0.0150195
0.0160989
0.0170304
0.0177965
0.0183817
0.0187727
0.0189586
0.0189308
0.0186843
0.0182173
0.0175317
0.016633
0.0155311
0.0142399
0.0127782
0.0111695
0.00944173
0.00762685
0.00576031
0.00388001
0.00202521
0.000235369
-0.00145489
-0.00300994
-0.00440285
-0.00561204
-0.00662321
-0.00743019
-0.00803506
-0.0084475
-0.00868378
-0.00876518
-0.00871628
-0.00856306
-0.00833119
-0.0080446
-0.00772441
-0.00738837
-0.00705062
-0.00672185
-0.00640981
-0.00611983
-0.00585543
-0.00561887
-0.00541141
-0.00523345
-0.00508447
-0.00496301
-0.00486667
-0.00479224
-0.00473596
-0.00469381
-0.00466183
-0.00463631
-0.00461394
-0.00459194
-0.00456802
-0.0045404
-0.00450782
-0.00446943
-0.00442481
-0.0043739
-0.00431698
-0.00425456
-0.0041874
-0.00411638
-0.00404251
-0.00396676
-0.00389016
-0.00381367
-0.00373813
-0.00366428
-0.00359276
-0.00352405
-0.00345849
-0.00339633
-0.00333767
-0.00328253
-0.00323085
-0.00318248
-0.00313725
-0.00309491
-0.00305523
-0.00301792
-0.0029827
-0.00294932
-0.00291749
-0.00288696
-0.00285749
-0.00282885
-0.00280085
-0.00277329
-0.002746
-0.00271884
-0.00269166
-0.00266435
-0.00263681
-0.00260894
-0.00258069
-0.00255198
-0.00252275
-0.00249298
-0.00246262
-0.00243165
-0.00240005
-0.00236779
-0.00233486
-0.00230124
-0.00226691
-0.00223182
-0.00219591
-0.00215909
-0.00212124
-0.00208221
-0.00204178
-0.00199967
-0.00195559
-0.00190928
-0.00186046
-0.00180895
-0.00175479
-0.00169816
-0.00164063
-0.00158566
-0.00151216
0.000476988
0.000493841
0.000493306
0.000464403
0.000409271
0.000330722
0.000230608
0.000110481
-2.81548e-05
-0.000183921
-0.000355724
-0.000542789
-0.0007447
-0.00096137
-0.00119297
-0.00143987
-0.00170247
-0.00198117
-0.00227616
-0.00258734
-0.00291417
-0.00325559
-0.00360984
-0.0039744
-0.00434586
-0.00471986
-0.00509099
-0.00545274
-0.0057975
-0.0061166
-0.00640033
-0.00663815
-0.00681884
-0.00693078
-0.00696226
-0.00690188
-0.00673894
-0.00646386
-0.00606866
-0.00554735
-0.00489638
-0.00411495
-0.00320505
-0.0021712
-0.00102153
0.000232445
0.00157622
0.00299271
0.00446251
0.00596434
0.00747553
0.0089725
0.0104313
0.011828
0.0131395
0.0143435
0.0154191
0.016347
0.0171099
0.0176926
0.0180819
0.0182668
0.0182395
0.0179947
0.0175304
0.0168486
0.0159549
0.0148589
0.013575
0.0121221
0.0105241
0.00880933
0.0070107
0.00516451
0.0033097
0.00148647
-0.00026517
-0.00190748
-0.00340626
-0.0047337
-0.00586943
-0.00680076
-0.00752381
-0.00804363
-0.00837346
-0.00853332
-0.00854807
-0.00844521
-0.00825266
-0.00799687
-0.00770129
-0.00738552
-0.00706494
-0.00675087
-0.00645115
-0.00617077
-0.00591274
-0.00567879
-0.00546988
-0.00528652
-0.00512881
-0.00499626
-0.00488773
-0.0048013
-0.0047343
-0.00468357
-0.00464566
-0.0046171
-0.00459457
-0.00457511
-0.00455611
-0.00453539
-0.00451123
-0.00448231
-0.00444772
-0.00440696
-0.00435989
-0.00430667
-0.00424776
-0.00418383
-0.00411574
-0.00404444
-0.00397092
-0.00389618
-0.00382119
-0.00374682
-0.00367384
-0.00360289
-0.00353451
-0.00346907
-0.00340683
-0.00334794
-0.00329246
-0.00324033
-0.00319146
-0.00314566
-0.00310273
-0.00306244
-0.00302452
-0.00298871
-0.00295474
-0.00292235
-0.00289128
-0.00286132
-0.00283222
-0.00280378
-0.00277582
-0.00274817
-0.00272068
-0.0026932
-0.00266563
-0.00263785
-0.00260977
-0.00258133
-0.00255246
-0.0025231
-0.0024932
-0.00246274
-0.00243168
-0.0024
-0.00236768
-0.00233469
-0.00230102
-0.00226663
-0.00223149
-0.00219553
-0.00215866
-0.00212078
-0.00208173
-0.00204131
-0.00199929
-0.00195543
-0.00190946
-0.00186119
-0.0018105
-0.00175748
-0.00170238
-0.00164684
-0.00159459
-0.00152328
0.000771399
0.000765051
0.000741067
0.000694344
0.000626579
0.000539859
0.000435728
0.000315467
0.000180218
3.08495e-05
-0.000132148
-0.000308702
-0.000499153
-0.000704227
-0.000924973
-0.00116266
-0.00141867
-0.00169433
-0.00199082
-0.00230896
-0.00264909
-0.00301093
-0.00339336
-0.00379437
-0.0042108
-0.0046383
-0.00507117
-0.00550232
-0.00592322
-0.00632399
-0.00669345
-0.00701935
-0.00728865
-0.00748782
-0.00760329
-0.00762189
-0.00753135
-0.00732078
-0.00698119
-0.00650595
-0.00589125
-0.00513622
-0.00424273
-0.003216
-0.0020656
-0.000804436
0.000551882
0.00198502
0.00347429
0.00499716
0.00652979
0.0080476
0.00952578
0.0109399
0.0122663
0.0134827
0.0145681
0.0155035
0.0162719
0.0168585
0.0172505
0.0174375
0.0174118
0.0171685
0.0167049
0.0160228
0.0151273
0.014028
0.0127386
0.0112782
0.00967058
0.00794481
0.00613445
0.00427703
0.00241306
0.000584659
-0.00116607
-0.00279886
-0.00427651
-0.00556862
-0.00665339
-0.00751764
-0.0081579
-0.00858095
-0.00880332
-0.0088497
-0.00875054
-0.0085393
-0.00824945
-0.00791186
-0.00755276
-0.00719263
-0.00684595
-0.00652172
-0.00622456
-0.00595592
-0.00571538
-0.00550175
-0.00531374
-0.00515033
-0.00501073
-0.00489407
-0.00479916
-0.00472423
-0.00466693
-0.00462438
-0.00459343
-0.00457091
-0.00455378
-0.00453925
-0.00452488
-0.00450858
-0.00448866
-0.00446379
-0.00443304
-0.00439589
-0.00435213
-0.00430192
-0.00424569
-0.00418409
-0.00411799
-0.00404834
-0.00397617
-0.00390249
-0.00382831
-0.00375452
-0.00368192
-0.00361119
-0.00354286
-0.00347736
-0.00341496
-0.00335584
-0.00330005
-0.00324757
-0.0031983
-0.00315209
-0.00310874
-0.00306801
-0.00302965
-0.00299341
-0.00295902
-0.00292622
-0.00289478
-0.00286444
-0.002835
-0.00280624
-0.00277798
-0.00275005
-0.0027223
-0.00269459
-0.0026668
-0.00263883
-0.00261059
-0.002582
-0.00255299
-0.00252351
-0.00249351
-0.00246296
-0.00243182
-0.00240007
-0.00236768
-0.00233464
-0.00230092
-0.00226649
-0.00223131
-0.00219532
-0.00215844
-0.00212056
-0.00208154
-0.00204119
-0.00199933
-0.00195572
-0.00191014
-0.00186244
-0.00181254
-0.00176055
-0.00170673
-0.00165268
-0.00160188
-0.00153342
0.00118632
0.00114574
0.00108729
0.00101467
0.000928128
0.000827865
0.000714454
0.000588458
0.000450187
0.000299621
0.000136339
-4.05252e-05
-0.000232312
-0.000440802
-0.000668155
-0.000916794
-0.00118926
-0.00148806
-0.00181545
-0.00217326
-0.00256265
-0.00298393
-0.00343634
-0.00391779
-0.00442473
-0.00495199
-0.00549262
-0.00603789
-0.00657732
-0.00709877
-0.00758866
-0.00803229
-0.00841419
-0.0087186
-0.00892994
-0.00903336
-0.00901531
-0.00886403
-0.00857009
-0.00812686
-0.00753082
-0.00678152
-0.00588181
-0.00483904
-0.0036645
-0.00237231
-0.0009797
0.000493292
0.00202433
0.0035893
0.00516297
0.00671954
0.00823325
0.00967902
0.0110328
0.0122722
0.0133765
0.0143272
0.0151076
0.0157036
0.016103
0.016296
0.0162748
0.0160346
0.0155728
0.0148906
0.0139927
0.0128878
0.0115895
0.0101161
0.00849141
0.00674465
0.00490998
0.003026
0.00113478
-0.000719452
-0.00249203
-0.0041397
-0.00562254
-0.00690556
-0.00796257
-0.00877777
-0.00934584
-0.00967301
-0.00977716
-0.00968656
-0.00943743
-0.00907072
-0.00862826
-0.00814905
-0.00766613
-0.00720454
-0.0067807
-0.006403
-0.0060734
-0.00578946
-0.0055464
-0.00533887
-0.00516209
-0.00501241
-0.00488727
-0.00478478
-0.00470314
-0.00464038
-0.00459412
-0.00456154
-0.00453956
-0.00452513
-0.0045153
-0.0045074
-0.00449906
-0.00448822
-0.00447323
-0.00445276
-0.0044259
-0.0043921
-0.00435118
-0.00430331
-0.00424895
-0.00418881
-0.00412378
-0.00405488
-0.0039832
-0.0039098
-0.00383571
-0.00376189
-0.00368917
-0.00361824
-0.00354967
-0.0034839
-0.00342121
-0.00336178
-0.00330568
-0.00325289
-0.00320332
-0.0031568
-0.00311314
-0.00307211
-0.00303346
-0.00299693
-0.00296227
-0.0029292
-0.0028975
-0.00286691
-0.00283723
-0.00280825
-0.00277978
-0.00275165
-0.00272371
-0.00269583
-0.00266788
-0.00263976
-0.00261139
-0.00258267
-0.00255355
-0.00252397
-0.00249389
-0.00246325
-0.00243204
-0.00240023
-0.00236779
-0.0023347
-0.00230094
-0.00226648
-0.00223127
-0.00219527
-0.00215839
-0.00212054
-0.00208159
-0.00204138
-0.00199973
-0.00195643
-0.0019113
-0.0018642
-0.00181507
-0.00176404
-0.00171135
-0.00165843
-0.00160815
-0.00154352
0.00168073
0.0015991
0.00149992
0.00139704
0.00128833
0.00117129
0.00104479
0.000907984
0.00075986
0.000599096
0.00042402
0.000232527
2.20358e-05
-0.000210496
-0.000468496
-0.000755652
-0.00107572
-0.00143233
-0.00182868
-0.0022673
-0.00274977
-0.0032764
-0.00384596
-0.00445546
-0.00509996
-0.00577237
-0.00646348
-0.00716197
-0.00785453
-0.00852616
-0.00916044
-0.00974001
-0.010247
-0.0106637
-0.0109729
-0.0111585
-0.0112064
-0.0111044
-0.0108434
-0.0104171
-0.00982275
-0.00906081
-0.00813644
-0.00705889
-0.00584059
-0.00449748
-0.00304875
-0.00151637
7.539e-05
0.00170064
0.00333247
0.00494371
0.0065075
0.00799797
0.00939072
0.0106632
0.0117951
0.0127683
0.0135671
0.0141779
0.0145897
0.0147929
0.0147802
0.0145469
0.0140905
0.0134113
0.0125135
0.0114052
0.0100988
0.00861242
0.00696929
0.00519855
0.00333476
0.0014174
-0.00051009
-0.00240158
-0.00420989
-0.00588874
-0.0073948
-0.0086893
-0.00974109
-0.0105289
-0.0110436
-0.0112886
-0.0112804
-0.0110482
-0.0106322
-0.0100801
-0.00944299
-0.00877049
-0.00810614
-0.00748386
-0.00692611
-0.00644389
-0.00603851
-0.00570436
-0.005432
-0.00521092
-0.00503157
-0.00488634
-0.00476975
-0.00467793
-0.00460785
-0.00455675
-0.00452182
-0.00450003
-0.00448819
-0.00448315
-0.00448193
-0.00448183
-0.00448048
-0.00447582
-0.00446619
-0.00445026
-0.00442714
-0.0043963
-0.00435763
-0.00431135
-0.00425801
-0.0041984
-0.00413352
-0.00406446
-0.0039924
-0.00391847
-0.00384379
-0.00376933
-0.00369597
-0.00362444
-0.00355532
-0.00348905
-0.00342592
-0.0033661
-0.00330967
-0.00325659
-0.00320676
-0.00316002
-0.00311616
-0.00307494
-0.00303612
-0.00299943
-0.00296461
-0.00293139
-0.00289954
-0.00286881
-0.00283898
-0.00280986
-0.00278125
-0.00275299
-0.00272493
-0.00269693
-0.00266887
-0.00264064
-0.00261216
-0.00258335
-0.00255415
-0.00252448
-0.00249432
-0.00246362
-0.00243235
-0.00240049
-0.002368
-0.00233487
-0.00230107
-0.00226658
-0.00223136
-0.00219535
-0.0021585
-0.00212071
-0.00208187
-0.00204184
-0.00200045
-0.00195753
-0.0019129
-0.00186643
-0.0018181
-0.00176799
-0.00171634
-0.00166432
-0.00161407
-0.00155391
0.00220195
0.00207676
0.00193429
0.0017998
0.001668
0.00153253
0.00138979
0.00123698
0.00107126
0.000889583
0.00068871
0.000465043
0.00021458
-6.70869e-05
-0.000384678
-0.000743062
-0.00114702
-0.00160094
-0.0021085
-0.00267229
-0.00329349
-0.00397149
-0.00470364
-0.00548499
-0.00630818
-0.00716337
-0.00803832
-0.00891859
-0.00978777
-0.0106279
-0.0114199
-0.0121442
-0.0127808
-0.0133107
-0.0137155
-0.0139786
-0.0140856
-0.0140244
-0.0137863
-0.0133655
-0.0127603
-0.0119731
-0.0110105
-0.00988289
-0.00860459
-0.0071935
-0.00567091
-0.00406098
-0.00239014
-0.000686367
0.0010215
0.00270459
0.00433469
0.00588494
0.00733036
0.00864831
0.00981871
0.0108241
0.0116496
0.0122828
0.0127133
0.0129327
0.0129343
0.0127132
0.012267
0.0115955
0.0107021
0.00959404
0.00828303
0.00678611
0.00512618
0.00333218
0.0014389
-0.000513485
-0.00248033
-0.0044138
-0.00626448
-0.00798327
-0.00952347
-0.0108429
-0.0119058
-0.0126855
-0.0131672
-0.0133498
-0.0132462
-0.0128836
-0.0123031
-0.0115565
-0.0107028
-0.00980241
-0.00891148
-0.00807637
-0.00732993
-0.00669007
-0.0061609
-0.00573576
-0.00540135
-0.00514175
-0.00494161
-0.00478809
-0.00467148
-0.00458479
-0.00452289
-0.00448159
-0.00445713
-0.00444597
-0.00444453
-0.00444937
-0.00445734
-0.00446559
-0.00447165
-0.00447341
-0.00446913
-0.00445752
-0.00443769
-0.00440918
-0.00437196
-0.00432636
-0.00427306
-0.00421297
-0.00414723
-0.00407707
-0.00400374
-0.0039285
-0.00385252
-0.00377683
-0.00370235
-0.00362983
-0.00355986
-0.00349288
-0.00342917
-0.00336889
-0.00331211
-0.00325876
-0.00320873
-0.00316184
-0.00311787
-0.00307658
-0.00303771
-0.00300097
-0.0029661
-0.00293284
-0.00290094
-0.00287017
-0.00284029
-0.00281111
-0.00278244
-0.00275411
-0.00272598
-0.00269791
-0.00266977
-0.00264148
-0.00261293
-0.00258405
-0.00255477
-0.00252505
-0.00249483
-0.00246407
-0.00243275
-0.00240083
-0.0023683
-0.00233513
-0.0023013
-0.00226679
-0.00223156
-0.00219557
-0.00215877
-0.00212106
-0.00208237
-0.00204255
-0.00200147
-0.00195897
-0.00191489
-0.00186911
-0.00182157
-0.00177236
-0.00172168
-0.0016704
-0.00161991
-0.0015644
0.00268662
0.00251857
0.00233447
0.00216986
0.0020155
0.00186056
0.00169839
0.00152371
0.00133142
0.00111649
0.000873847
0.000598262
0.000284256
-7.38941e-05
-0.000482034
-0.000945911
-0.00147087
-0.00206146
-0.00272109
-0.00345153
-0.00425261
-0.00512185
-0.00605422
-0.00704201
-0.00807479
-0.00913952
-0.0102207
-0.0113009
-0.0123608
-0.0133798
-0.0143368
-0.0152103
-0.0159791
-0.0166229
-0.0171229
-0.0174619
-0.0176253
-0.0176013
-0.0173813
-0.0169602
-0.0163373
-0.0155162
-0.0145047
-0.0133146
-0.0119622
-0.0104672
-0.00885351
-0.00714753
-0.00537822
-0.00357601
-0.00177207
2.65184e-06
0.00171819
0.00334636
0.00486137
0.00624025
0.0074631
0.00851311
0.00937637
0.0100415
0.0104995
0.0107428
0.0107657
0.0105635
0.0101336
0.00947571
0.00859218
0.00748946
0.00617835
0.00467507
0.00300195
0.00118772
-0.000732635
-0.00271829
-0.00472353
-0.00669897
-0.00859319
-0.0103546
-0.0119333
-0.0132839
-0.0143666
-0.0151509
-0.0156155
-0.015754
-0.0155745
-0.0151002
-0.0143701
-0.0134371
-0.0123648
-0.0112226
-0.0100788
-0.00899395
-0.00801449
-0.00716953
-0.00647014
-0.00591199
-0.00547994
-0.00515338
-0.00491087
-0.00473338
-0.00460574
-0.00451669
-0.00445798
-0.00442323
-0.00440724
-0.00440547
-0.00441371
-0.00442806
-0.004445
-0.00446144
-0.0044747
-0.00448253
-0.00448315
-0.00447522
-0.00445789
-0.00443079
-0.00439401
-0.00434803
-0.00429369
-0.00423208
-0.00416448
-0.00409227
-0.00401684
-0.00393954
-0.00386162
-0.00378417
-0.00370815
-0.00363431
-0.00356325
-0.00349539
-0.003431
-0.00337023
-0.00331308
-0.0032595
-0.00320934
-0.00316239
-0.00311842
-0.00307716
-0.00303833
-0.00300166
-0.00296686
-0.00293366
-0.00290181
-0.00287107
-0.00284122
-0.00281206
-0.00278339
-0.00275506
-0.00272691
-0.0026988
-0.00267064
-0.0026423
-0.0026137
-0.00258478
-0.00255545
-0.00252568
-0.00249541
-0.0024646
-0.00243323
-0.00240127
-0.0023687
-0.0023355
-0.00230164
-0.00226711
-0.00223189
-0.00219592
-0.00215918
-0.00212158
-0.00208306
-0.00204349
-0.00200276
-0.00196072
-0.00191722
-0.00187214
-0.0018254
-0.00177704
-0.00172725
-0.00167657
-0.00162567
-0.00157467
0.00306607
0.00285961
0.00263828
0.00244663
0.00227093
0.00209548
0.00191019
0.00170697
0.00147823
0.00121676
0.00091559
0.000567864
0.000166721
-0.000294663
-0.00082291
-0.00142415
-0.00210367
-0.00286546
-0.00371176
-0.00464272
-0.00565597
-0.00674641
-0.00790606
-0.00912405
-0.0103867
-0.0116779
-0.0129793
-0.0142704
-0.0155299
-0.0167351
-0.0178631
-0.018891
-0.0197967
-0.0205588
-0.0211577
-0.0215759
-0.0217984
-0.021813
-0.0216111
-0.0211879
-0.0205439
-0.019683
-0.0186141
-0.0173507
-0.0159106
-0.0143162
-0.0125935
-0.0107718
-0.00888294
-0.0069602
-0.0050375
-0.0031484
-0.00132507
0.000402542
0.00200742
0.00346601
0.00475841
0.00586837
0.00678299
0.0074922
0.00798825
0.00826506
0.00831775
0.00814223
0.00773613
0.0070987
0.0062315
0.00514016
0.00383459
0.00233021
0.000648808
-0.00118109
-0.00312426
-0.00513928
-0.00717938
-0.00919374
-0.0111291
-0.0129314
-0.0145485
-0.0159313
-0.017037
-0.0178312
-0.0182882
-0.0183958
-0.0181569
-0.0175901
-0.0167303
-0.0156286
-0.0143502
-0.0129702
-0.0115667
-0.0102137
-0.00897284
-0.0078872
-0.0069788
-0.00624948
-0.00568528
-0.00526266
-0.00495466
-0.00473569
-0.00458425
-0.00448374
-0.00442179
-0.00438914
-0.00437847
-0.00438382
-0.00440008
-0.00442267
-0.00444756
-0.00447127
-0.00449086
-0.00450387
-0.00450842
-0.00450313
-0.00448722
-0.0044604
-0.0044229
-0.0043754
-0.00431891
-0.00425473
-0.00418433
-0.00410923
-0.00403096
-0.00395098
-0.00387061
-0.003791
-0.00371311
-0.00363772
-0.00356542
-0.00349659
-0.00343149
-0.00337022
-0.00331276
-0.00325902
-0.0032088
-0.00316189
-0.00311801
-0.00307689
-0.00303821
-0.0030017
-0.00296706
-0.00293401
-0.0029023
-0.00287167
-0.00284192
-0.00281283
-0.00278421
-0.00275592
-0.00272778
-0.00269969
-0.00267151
-0.00264316
-0.00261454
-0.00258558
-0.00255622
-0.0025264
-0.00249608
-0.00246523
-0.00243382
-0.00240182
-0.00236921
-0.00233597
-0.00230209
-0.00226755
-0.00223233
-0.00219641
-0.00215973
-0.00212226
-0.00208393
-0.00204463
-0.00200427
-0.00196271
-0.00191981
-0.00187542
-0.00182945
-0.00178189
-0.00173289
-0.0016827
-0.00163129
-0.00158436
0.00327221
0.00303471
0.00278306
0.00256864
0.00237309
0.00217589
0.00196338
0.00172458
0.00144939
0.0011284
0.000752846
0.000314373
-0.000195013
-0.000782887
-0.00145618
-0.00222085
-0.00308145
-0.00404068
-0.00509898
-0.00625419
-0.00750125
-0.00883209
-0.0102357
-0.011698
-0.0132024
-0.0147301
-0.0162602
-0.0177702
-0.0192366
-0.0206354
-0.021942
-0.0231324
-0.024183
-0.0250717
-0.0257776
-0.0262824
-0.0265701
-0.0266283
-0.0264476
-0.0260235
-0.0253568
-0.0244517
-0.0233182
-0.0219712
-0.0204306
-0.018721
-0.0168711
-0.0149133
-0.0128826
-0.0108155
-0.00874927
-0.00672062
-0.00476446
-0.00291303
-0.00119502
0.000365016
0.00174692
0.00293484
0.00391687
0.00468434
0.00523104
0.00555241
0.00564484
0.00550522
0.00513117
0.00452182
0.00367828
0.00260516
0.00131162
-0.00018767
-0.00187141
-0.00371121
-0.00567163
-0.00771058
-0.00978029
-0.0118285
-0.0138003
-0.0156396
-0.0172916
-0.0187047
-0.0198327
-0.0206376
-0.0210914
-0.0211759
-0.0208894
-0.0202459
-0.0192757
-0.0180265
-0.0165623
-0.0149606
-0.0133064
-0.0116847
-0.0101712
-0.00882458
-0.00768032
-0.00674994
-0.00602402
-0.00547863
-0.00508268
-0.00480438
-0.00461556
-0.00449351
-0.00442094
-0.0043849
-0.00437544
-0.00438478
-0.00440656
-0.00443532
-0.00446639
-0.0044958
-0.00452023
-0.00453701
-0.00454411
-0.00454012
-0.00452428
-0.00449645
-0.00445702
-0.00440684
-0.00434717
-0.00427951
-0.00420548
-0.00412681
-0.00404515
-0.00396204
-0.00387887
-0.00379684
-0.00371693
-0.00363989
-0.0035663
-0.00349651
-0.00343074
-0.00336904
-0.00331136
-0.00325754
-0.00320738
-0.0031606
-0.00311693
-0.00307603
-0.00303761
-0.00300135
-0.00296695
-0.00293412
-0.0029026
-0.00287215
-0.00284254
-0.00281356
-0.00278504
-0.00275681
-0.00272872
-0.00270065
-0.00267249
-0.00264413
-0.00261549
-0.0025865
-0.0025571
-0.00252725
-0.00249689
-0.00246599
-0.00243453
-0.00240249
-0.00236984
-0.00233657
-0.00230266
-0.00226811
-0.0022329
-0.00219701
-0.00216042
-0.00212308
-0.00208494
-0.00204593
-0.00200594
-0.00196486
-0.00192253
-0.0018788
-0.00183356
-0.00178672
-0.00173839
-0.0016886
-0.00163664
-0.00159313
0.00324611
0.00298722
0.00271405
0.00248188
0.00226811
0.00204783
0.00180409
0.00152313
0.00119247
0.000800736
0.000337532
-0.000206711
-0.000840795
-0.00157264
-0.00240901
-0.00335515
-0.00441434
-0.00558751
-0.00687286
-0.00826563
-0.00975794
-0.0113388
-0.0129944
-0.0147079
-0.0164603
-0.0182303
-0.0199952
-0.0217307
-0.0234117
-0.0250124
-0.0265071
-0.02787
-0.0290762
-0.030102
-0.0309252
-0.0315259
-0.0318872
-0.0319953
-0.0318402
-0.0314174
-0.0307275
-0.029775
-0.0285708
-0.0271311
-0.025478
-0.0236382
-0.0216435
-0.0195294
-0.0173344
-0.0150988
-0.0128637
-0.0106692
-0.00855372
-0.00655234
-0.00469597
-0.00301065
-0.00151718
-0.00023122
0.000836191
0.00167782
0.0022892
0.00266751
0.00281068
0.00271677
0.00238384
0.00181102
0.000999092
-4.82729e-05
-0.0013226
-0.00280984
-0.00448911
-0.00633211
-0.0083031
-0.0103594
-0.0124522
-0.014528
-0.0165302
-0.0184008
-0.0200827
-0.021522
-0.0226695
-0.023484
-0.0239354
-0.0240008
-0.0236746
-0.0229665
-0.0219025
-0.0205264
-0.0188995
-0.017099
-0.0152137
-0.0133364
-0.011555
-0.00994272
-0.00854971
-0.00739955
-0.00649042
-0.00580075
-0.00529733
-0.00494325
-0.00470385
-0.00455002
-0.00445898
-0.00441349
-0.00440051
-0.00441005
-0.00443419
-0.00446644
-0.00450132
-0.0045343
-0.00456165
-0.0045804
-0.00458836
-0.0045841
-0.0045669
-0.00453673
-0.00449418
-0.0044403
-0.00437655
-0.00430464
-0.00422641
-0.00414371
-0.0040583
-0.00397183
-0.00388573
-0.00380123
-0.00371929
-0.00364066
-0.00356587
-0.00349523
-0.00342891
-0.00336691
-0.00330913
-0.00325538
-0.00320539
-0.00315887
-0.0031155
-0.00307493
-0.00303684
-0.0030009
-0.0029668
-0.00293425
-0.00290297
-0.00287273
-0.00284329
-0.00281445
-0.00278604
-0.00275789
-0.00272985
-0.00270181
-0.00267365
-0.00264529
-0.00261663
-0.00258761
-0.00255817
-0.00252827
-0.00249786
-0.00246691
-0.0024354
-0.0024033
-0.0023706
-0.00233729
-0.00230336
-0.00226879
-0.00223359
-0.00219774
-0.00216122
-0.00212401
-0.00208607
-0.00204733
-0.0020077
-0.00196706
-0.00192526
-0.00188214
-0.00183754
-0.00179132