/*--------------------------------*- C++ -*----------------------------------*\
  =========                 |
  \\      /  F ield         | OpenFOAM: The Open Source CFD Toolbox
   \\    /   O peration     | Website:  https://openfoam.org
    \\  /    A nd           | Version:  8
     \\/     M anipulation  |
\*---------------------------------------------------------------------------*/
FoamFile
{
    version     2.0;
    format      ascii;
    class       surfaceScalarField;
    location    "0.62";
    object      phi;
}
// * * * * * * * * * * * * * * * * * * * * * * * * * * * * * * * * * * * * * //

dimensions      [0 3 -1 0 0 0 0];

internalField   nonuniform List<scalar> 
24170
(
-2.71324e-12
2.71324e-12
4.70928e-12
-7.42252e-12
2.14924e-11
-1.67831e-11
4.61345e-11
-2.46421e-11
7.7506e-11
-3.13715e-11
1.14935e-10
-3.74289e-11
1.58034e-10
-4.30993e-11
2.06656e-10
-4.8622e-11
2.60919e-10
-5.42628e-11
3.21302e-10
-6.03835e-11
3.88783e-10
-6.74808e-11
4.64971e-10
-7.61876e-11
5.5214e-10
-8.71692e-11
6.52607e-10
-1.00467e-10
7.64188e-10
-1.11581e-10
8.52604e-10
-8.84163e-11
7.91834e-10
6.07704e-11
1.96417e-09
-1.17234e-09
-3.01197e-12
5.7252e-12
2.23002e-11
-3.27347e-11
7.6109e-11
-7.05919e-11
1.54009e-10
-1.02542e-10
2.52742e-10
-1.30104e-10
3.70115e-10
-1.54802e-10
5.04733e-10
-1.77717e-10
6.55811e-10
-1.997e-10
8.23196e-10
-2.21648e-10
1.00748e-09
-2.44668e-10
1.21006e-09
-2.70056e-10
1.43279e-09
-2.98926e-10
1.67651e-09
-3.3088e-10
1.93555e-09
-3.59513e-10
2.17921e-09
-3.55243e-10
2.28921e-09
-1.98408e-10
1.79713e-09
5.52846e-10
4.38593e-09
-6.24621e-10
1.5012e-12
4.224e-12
4.99265e-11
-8.116e-11
1.46993e-10
-1.67659e-10
2.85718e-10
-2.41267e-10
4.60664e-10
-3.0505e-10
6.67866e-10
-3.62005e-10
9.04546e-10
-4.14397e-10
1.16877e-09
-4.63923e-10
1.45936e-09
-5.12235e-10
1.77581e-09
-5.61118e-10
2.11786e-09
-6.12108e-10
2.48392e-09
-6.64985e-10
2.86647e-09
-7.13432e-10
3.23967e-09
-7.32712e-10
3.52606e-09
-6.41636e-10
3.51055e-09
-1.82901e-10
2.60924e-09
1.45416e-09
6.88234e-09
1.1282e-10
1.05982e-11
-6.37419e-12
8.84643e-11
-1.59026e-10
2.35604e-10
-3.14799e-10
4.42982e-10
-4.48645e-10
7.02925e-10
-5.64992e-10
1.00943e-09
-6.68514e-10
1.35788e-09
-7.6284e-10
1.74449e-09
-8.50531e-10
2.16603e-09
-9.33775e-10
2.6193e-09
-1.01439e-09
3.0998e-09
-1.09261e-09
3.59833e-09
-1.16351e-09
4.09272e-09
-1.20783e-09
4.5291e-09
-1.16909e-09
4.78114e-09
-8.93677e-10
4.5743e-09
2.39366e-11
3.39601e-09
2.63246e-09
9.30774e-09
9.70605e-10
2.45349e-11
-3.09091e-11
1.38549e-10
-2.7304e-10
3.42964e-10
-5.19213e-10
6.26811e-10
-7.32493e-10
9.80106e-10
-9.18287e-10
1.39452e-09
-1.08292e-09
1.863e-09
-1.23133e-09
2.37911e-09
-1.36664e-09
2.93629e-09
-1.49096e-09
3.52678e-09
-1.60487e-09
4.1391e-09
-1.70493e-09
4.75269e-09
-1.7771e-09
5.32661e-09
-1.78175e-09
5.77777e-09
-1.62025e-09
5.94382e-09
-1.05972e-09
5.54178e-09
4.25976e-10
4.20373e-09
3.97051e-09
1.15521e-08
1.95935e-09
4.3164e-11
-7.40731e-11
2.00352e-10
-4.30229e-10
4.69318e-10
-7.88179e-10
8.37059e-10
-1.10023e-09
1.29115e-09
-1.37238e-09
1.82058e-09
-1.61236e-09
2.41528e-09
-1.82602e-09
3.06515e-09
-2.01651e-09
3.75894e-09
-2.18475e-09
4.48239e-09
-2.32832e-09
5.21461e-09
-2.43715e-09
5.92111e-09
-2.48361e-09
6.54122e-09
-2.40185e-09
6.96784e-09
-2.04687e-09
7.02319e-09
-1.11508e-09
6.45706e-09
9.92113e-10
5.05984e-09
5.36772e-09
1.35542e-08
3.05779e-09
6.61719e-11
-1.40245e-10
2.73419e-10
-6.37476e-10
6.13843e-10
-1.1286e-09
1.072e-09
-1.55839e-09
1.63282e-09
-1.9332e-09
2.28226e-09
-2.26179e-09
3.00652e-09
-2.55029e-09
3.79088e-09
-2.80087e-09
4.61804e-09
-3.01191e-09
5.46555e-09
-3.17584e-09
6.3014e-09
-3.27301e-09
7.07643e-09
-3.25863e-09
7.71259e-09
-3.03802e-09
8.0886e-09
-2.42287e-09
8.03267e-09
-1.05915e-09
7.35383e-09
1.67096e-09
5.98405e-09
6.7375e-09
1.52764e-08
4.26185e-09
9.29751e-11
-2.3322e-10
3.56484e-10
-9.00984e-10
7.74296e-10
-1.54642e-09
1.32784e-09
-2.11194e-09
1.99911e-09
-2.60446e-09
2.77061e-09
-3.03329e-09
3.62424e-09
-3.40391e-09
4.53972e-09
-3.71635e-09
5.49257e-09
-3.96475e-09
6.45104e-09
-4.13431e-09
7.37144e-09
-4.19341e-09
8.19116e-09
-4.07835e-09
8.8201e-09
-3.66696e-09
9.13461e-09
-2.73738e-09
8.98687e-09
-9.11415e-10
8.25678e-09
2.40104e-09
6.98832e-09
8.00596e-09
1.66944e-08
5.57029e-09
1.22673e-10
-3.55893e-10
4.47284e-10
-1.2256e-09
9.46647e-10
-2.04578e-09
1.59816e-09
-2.76345e-09
2.38049e-09
-3.3868e-09
3.27239e-09
-3.92519e-09
4.25092e-09
-4.38244e-09
5.28962e-09
-4.75505e-09
6.35614e-09
-5.03128e-09
7.40913e-09
-5.1873e-09
8.39402e-09
-5.17829e-09
9.23792e-09
-4.92225e-09
9.84571e-09
-4.27475e-09
1.0103e-08
-2.99463e-09
9.89793e-09
-7.06388e-10
9.18102e-09
3.11796e-09
8.0761e-09
9.11088e-09
1.77901e-08
6.98042e-09
1.53989e-10
-5.09882e-10
5.42377e-10
-1.61398e-09
1.12469e-09
-2.62809e-09
1.87331e-09
-3.51207e-09
2.76324e-09
-4.27673e-09
3.76922e-09
-4.93116e-09
4.86324e-09
-5.47647e-09
6.01243e-09
-5.90424e-09
7.17658e-09
-6.19543e-09
8.30545e-09
-6.31617e-09
9.33571e-09
-6.20856e-09
1.01888e-08
-5.77532e-09
1.07721e-08
-4.85806e-09
1.09898e-08
-3.21231e-09
1.07719e-08
-4.88493e-10
1.01309e-08
3.75896e-09
9.24176e-09
1e-08
1.85471e-08
8.48469e-09
1.85406e-10
-6.95287e-10
6.36977e-10
-2.06556e-09
1.29966e-09
-3.29077e-09
2.13989e-09
-4.35231e-09
3.1287e-09
-5.26554e-09
4.23682e-09
-6.03927e-09
5.43132e-09
-6.67097e-09
6.67326e-09
-7.14618e-09
7.91544e-09
-7.43761e-09
9.10044e-09
-7.50117e-09
1.01595e-08
-7.26762e-09
1.10136e-08
-6.62936e-09
1.15794e-08
-5.42392e-09
1.17858e-08
-3.41875e-09
1.16047e-08
-3.07352e-10
1.10981e-08
4.26557e-09
1.04688e-08
1.06293e-08
1.8949e-08
1.0067e-08
1.80025e-10
-8.75313e-10
6.05975e-10
-2.49151e-09
1.22176e-09
-3.90655e-09
1.99351e-09
-5.12406e-09
2.89353e-09
-6.16556e-09
3.89428e-09
-7.04003e-09
4.96469e-09
-7.74138e-09
6.06799e-09
-8.24948e-09
7.16021e-09
-8.52983e-09
8.18941e-09
-8.53038e-09
9.09635e-09
-8.17456e-09
9.81779e-09
-7.3508e-09
1.02947e-08
-5.90081e-09
1.04878e-08
-3.61182e-09
1.04022e-08
-2.21804e-10
1.01183e-08
4.54951e-09
9.81522e-09
1.09323e-08
1.90014e-08
9.76284e-09
2.27852e-10
-1.10316e-09
7.60368e-10
-3.02402e-09
1.51856e-09
-4.66475e-09
2.45854e-09
-6.06403e-09
3.54545e-09
-7.25248e-09
4.74514e-09
-8.23971e-09
6.01922e-09
-9.01546e-09
7.32255e-09
-9.55281e-09
8.60205e-09
-9.80932e-09
9.7969e-09
-9.72524e-09
1.08412e-08
-9.21888e-09
1.16702e-08
-8.17975e-09
1.22315e-08
-6.46217e-09
1.25039e-08
-3.88415e-09
1.25207e-08
-2.38631e-10
1.23952e-08
4.67496e-09
1.23324e-08
1.09951e-08
1.87266e-08
1.26072e-08
2.78592e-10
-1.38176e-09
9.23784e-10
-3.66921e-09
1.82921e-09
-5.57017e-09
2.93904e-09
-7.17386e-09
4.21097e-09
-8.52441e-09
5.60431e-09
-9.63305e-09
7.07398e-09
-1.04851e-08
8.5676e-09
-1.10464e-08
1.00249e-08
-1.12666e-08
1.13794e-08
-1.10797e-08
1.25633e-08
-1.04028e-08
1.35169e-08
-9.13333e-09
1.42021e-08
-7.14741e-09
1.46219e-08
-4.30391e-09
1.48409e-08
-4.57593e-10
1.50019e-08
4.51392e-09
1.53263e-08
1.06708e-08
1.79675e-08
1.60853e-08
3.21844e-10
-1.7036e-09
1.06102e-09
-4.40839e-09
2.08513e-09
-6.59428e-09
3.32649e-09
-8.41522e-09
4.7369e-09
-9.93482e-09
6.27157e-09
-1.11677e-08
7.88208e-09
-1.20956e-08
9.51321e-09
-1.26776e-08
1.11031e-08
-1.28565e-08
1.25866e-08
-1.25632e-08
1.39022e-08
-1.17185e-08
1.50033e-08
-1.02344e-08
1.58732e-08
-8.0173e-09
1.65422e-08
-4.97293e-09
1.71034e-08
-1.01878e-09
1.77201e-08
3.89722e-09
1.86174e-08
9.77348e-09
1.65325e-08
2.00525e-08
3.35273e-10
-2.03887e-09
1.09884e-09
-5.17196e-09
2.14485e-09
-7.64028e-09
3.3999e-09
-9.67027e-09
4.81575e-09
-1.13507e-08
6.35032e-09
-1.27023e-08
7.9599e-09
-1.37052e-08
9.59606e-09
-1.43137e-08
1.12063e-08
-1.44667e-08
1.27382e-08
-1.40951e-08
1.41476e-08
-1.31279e-08
1.54099e-08
-1.14968e-08
1.6534e-08
-9.14141e-09
1.75755e-08
-6.0144e-09
1.86464e-08
-2.08963e-09
1.99156e-08
2.62794e-09
2.1597e-08
8.09216e-09
1.42078e-08
2.39217e-08
2.78569e-10
-2.31744e-09
9.05777e-10
-5.79917e-09
1.75542e-09
-8.48993e-09
2.76637e-09
-1.06812e-08
3.90361e-09
-1.24879e-08
5.14103e-09
-1.39397e-08
6.45421e-09
-1.50184e-08
7.81757e-09
-1.56771e-08
9.20475e-09
-1.58539e-08
1.05925e-08
-1.54828e-08
1.19674e-08
-1.45028e-08
1.33355e-08
-1.2865e-08
1.47324e-08
-1.05383e-08
1.62317e-08
-7.51372e-09
1.795e-08
-3.80792e-09
2.00439e-08
5.34082e-10
2.26978e-08
5.43823e-09
1.08015e-08
2.6104e-08
8.95732e-11
-2.40702e-09
2.82324e-10
-5.99192e-09
5.35437e-10
-8.74304e-09
8.34088e-10
-1.09799e-08
1.17872e-09
-1.28325e-08
1.5787e-09
-1.43397e-08
2.0489e-09
-1.54886e-08
2.60759e-09
-1.62358e-08
3.27597e-09
-1.65223e-08
4.07967e-09
-1.62865e-08
5.05229e-09
-1.54754e-08
6.24027e-09
-1.40529e-08
7.70807e-09
-1.20061e-08
9.54194e-09
-9.34759e-09
1.18507e-08
-6.11672e-09
1.47623e-08
-2.37744e-09
1.84156e-08
1.78492e-09
6.26818e-09
2.29489e-08
-3.00923e-10
-2.10609e-09
-9.80563e-10
-5.31228e-09
-1.9095e-09
-7.81411e-09
-3.01417e-09
-9.87519e-09
-4.23489e-09
-1.16118e-08
-5.50861e-09
-1.3066e-08
-6.76372e-09
-1.42335e-08
-7.91944e-09
-1.508e-08
-8.88726e-09
-1.55545e-08
-9.57262e-09
-1.56012e-08
-9.87655e-09
-1.51715e-08
-9.69681e-09
-1.42327e-08
-8.92893e-09
-1.27739e-08
-7.46751e-09
-1.0809e-08
-5.20833e-09
-8.3759e-09
-2.05178e-09
-5.53398e-09
2.09274e-09
-2.3596e-09
1.05961e-09
7.3013e-09
-4.47657e-10
-1.65844e-09
-1.46011e-09
-4.29982e-09
-2.85027e-09
-6.42395e-09
-4.52267e-09
-8.20279e-09
-6.41045e-09
-9.72405e-09
-8.44964e-09
-1.10268e-08
-1.05695e-08
-1.21137e-08
-1.26891e-08
-1.29604e-08
-1.47182e-08
-1.35254e-08
-1.65585e-08
-1.37608e-08
-1.81081e-08
-1.3622e-08
-1.92643e-08
-1.30764e-08
-1.99289e-08
-1.21094e-08
-2.00109e-08
-1.0727e-08
-1.94307e-08
-8.95608e-09
-1.81225e-08
-6.84218e-09
-1.60363e-08
-4.44581e-09
-1.8374e-09
-1.31393e-08
-4.75724e-10
-1.18271e-09
-1.56148e-09
-3.21407e-09
-3.06917e-09
-4.91626e-09
-4.90657e-09
-6.36539e-09
-7.01165e-09
-7.61897e-09
-9.32725e-09
-8.71118e-09
-1.17908e-08
-9.65011e-09
-1.43301e-08
-1.04211e-08
-1.68622e-08
-1.09933e-08
-1.92949e-08
-1.1328e-08
-2.15301e-08
-1.13868e-08
-2.34675e-08
-1.1139e-08
-2.50097e-08
-1.05672e-08
-2.60669e-08
-9.66977e-09
-2.65611e-08
-8.46189e-09
-2.64292e-08
-6.97408e-09
-2.56255e-08
-5.24956e-09
-3.34091e-09
-2.41219e-08
-4.1688e-10
-7.65833e-10
-1.38823e-09
-2.24272e-09
-2.76218e-09
-3.54232e-09
-4.46424e-09
-4.66333e-09
-6.44389e-09
-5.63933e-09
-8.65557e-09
-6.49949e-09
-1.10503e-08
-7.25537e-09
-1.35712e-08
-7.90019e-09
-1.61517e-08
-8.41287e-09
-1.87155e-08
-8.76419e-09
-2.1179e-08
-8.92333e-09
-2.34542e-08
-8.86379e-09
-2.54536e-08
-8.56784e-09
-2.70941e-08
-8.02924e-09
-2.83017e-08
-7.25426e-09
-2.90149e-08
-6.26095e-09
-2.91869e-08
-5.07754e-09
-3.74065e-09
-2.87872e-08
-3.21148e-10
-4.44684e-10
-1.09719e-09
-1.46668e-09
-2.22486e-09
-2.41465e-09
-3.64962e-09
-3.23856e-09
-5.33219e-09
-3.95676e-09
-7.23788e-09
-4.5938e-09
-9.33073e-09
-5.16253e-09
-1.15694e-08
-5.66152e-09
-1.39048e-08
-6.07751e-09
-1.62791e-08
-6.38987e-09
-1.86269e-08
-6.57549e-09
-2.08775e-08
-6.61325e-09
-2.29578e-08
-6.48751e-09
-2.47967e-08
-6.19035e-09
-2.63284e-08
-5.72258e-09
-2.74958e-08
-5.09354e-09
-2.82532e-08
-4.32014e-09
-3.42612e-09
-2.85677e-08
-2.21498e-10
-2.23186e-10
-7.91202e-10
-8.96976e-10
-1.65064e-09
-1.55521e-09
-2.76148e-09
-2.12772e-09
-4.09317e-09
-2.62506e-09
-5.61964e-09
-3.06733e-09
-7.31546e-09
-3.46671e-09
-9.15226e-09
-3.82471e-09
-1.10961e-08
-4.13364e-09
-1.31062e-08
-4.37984e-09
-1.51345e-08
-4.54712e-09
-1.71278e-08
-4.61996e-09
-1.90293e-08
-4.58601e-09
-2.07819e-08
-4.43777e-09
-2.2331e-08
-4.17349e-09
-2.36274e-08
-3.79718e-09
-2.46294e-08
-3.31807e-09
-2.75033e-09
-2.53052e-08
-1.35632e-10
-8.7554e-11
-5.24475e-10
-5.08134e-10
-1.14146e-09
-9.38221e-10
-1.95927e-09
-1.30992e-09
-2.95384e-09
-1.6305e-09
-4.10564e-09
-1.91553e-09
-5.39721e-09
-2.17515e-09
-6.81006e-09
-2.41186e-09
-8.32209e-09
-2.62161e-09
-9.90599e-09
-2.79594e-09
-1.15288e-08
-2.92434e-09
-1.31524e-08
-2.99632e-09
-1.47353e-08
-3.00309e-09
-1.62344e-08
-2.93871e-09
-1.76072e-08
-2.80072e-09
-1.8814e-08
-2.59034e-09
-1.982e-08
-2.31208e-09
-1.97356e-09
-2.05968e-08
-7.05794e-11
-1.69746e-11
-3.17611e-10
-2.61102e-10
-7.36417e-10
-5.19415e-10
-1.30658e-09
-7.39761e-10
-2.00915e-09
-9.27922e-10
-2.82976e-09
-1.09492e-09
-3.75683e-09
-1.24808e-09
-4.77896e-09
-1.38973e-09
-5.88263e-09
-1.51794e-09
-7.05064e-09
-1.62793e-09
-8.26152e-09
-1.71347e-09
-9.48969e-09
-1.76815e-09
-1.07064e-08
-1.78639e-09
-1.1881e-08
-1.76413e-09
-1.29824e-08
-1.69927e-09
-1.3981e-08
-1.59178e-09
-1.48495e-08
-1.44361e-09
-1.25828e-09
-1.55647e-08
-2.70204e-11
1.00458e-11
-1.71681e-10
-1.16442e-10
-4.38511e-10
-2.52585e-10
-8.1172e-10
-3.66551e-10
-1.27691e-09
-4.62731e-10
-1.82396e-09
-5.47869e-10
-2.44561e-09
-6.2643e-10
-3.13533e-09
-7.00001e-10
-3.88547e-09
-7.678e-10
-4.68595e-09
-8.27446e-10
-5.5237e-09
-8.75715e-10
-6.38264e-09
-9.09212e-10
-7.24414e-09
-9.24886e-10
-8.08787e-09
-9.20403e-10
-8.89276e-09
-8.94374e-10
-9.63808e-09
-8.46459e-10
-1.03044e-08
-7.77329e-10
-6.88301e-10
-1.08743e-08
-2.60748e-12
1.26532e-11
-7.82688e-11
-4.07803e-11
-2.33582e-10
-9.72724e-11
-4.56511e-10
-1.43621e-10
-7.37013e-10
-1.8223e-10
-1.06857e-09
-2.1631e-10
-1.44705e-09
-2.47947e-10
-1.86913e-09
-2.77927e-10
-2.33092e-09
-3.06005e-10
-2.82713e-09
-3.3124e-10
-3.35052e-09
-3.52319e-10
-3.89191e-09
-3.67826e-10
-4.44034e-09
-3.76458e-10
-4.98356e-09
-3.77181e-10
-5.50862e-09
-3.69319e-10
-6.00247e-09
-3.52606e-10
-6.45262e-09
-3.2718e-10
-2.93375e-10
-6.84754e-09
7.22223e-12
5.431e-12
-2.56784e-11
-7.8797e-12
-1.01781e-10
-2.11695e-11
-2.13582e-10
-3.18205e-11
-3.55265e-10
-4.05473e-11
-5.23346e-10
-4.82291e-11
-7.15881e-10
-5.54121e-11
-9.31498e-10
-6.23103e-11
-1.16862e-09
-6.88828e-11
-1.42494e-09
-7.49188e-11
-1.69715e-09
-8.01137e-11
-1.98084e-09
-8.41332e-11
-2.27064e-09
-8.66622e-11
-2.56038e-09
-8.74415e-11
-2.84341e-09
-8.62888e-11
-3.1129e-09
-8.31109e-11
-3.36219e-09
-7.78889e-11
-7.06603e-11
-3.58491e-09
5.431e-12
-2.4487e-12
-2.36182e-11
-5.54387e-11
-9.5986e-11
-1.44215e-10
-1.99627e-10
-2.61938e-10
-3.3082e-10
-4.05739e-10
-4.85853e-10
-5.69986e-10
-6.56648e-10
-7.4409e-10
-8.30379e-10
-9.13489e-10
-9.91378e-10
-1.06204e-09
9.20501e-11
-9.20501e-11
3.33011e-10
-2.4096e-10
6.7083e-10
-3.37819e-10
1.05188e-09
-3.81048e-10
1.43136e-09
-3.79481e-10
1.77394e-09
-3.42579e-10
2.05305e-09
-2.79109e-10
2.24978e-09
-1.96735e-10
2.35159e-09
-1.0181e-10
2.35022e-09
1.37096e-12
2.24257e-09
1.07647e-10
2.02638e-09
2.1619e-10
1.70129e-09
3.25093e-10
1.26738e-09
4.3391e-10
7.2453e-10
5.4285e-10
7.19805e-11
6.5255e-10
-6.9194e-10
7.6392e-10
-1.56984e-09
8.77902e-10
-2.56509e-09
9.95246e-10
-3.68154e-09
1.11645e-09
-4.92317e-09
1.24163e-09
-6.29359e-09
1.37042e-09
-7.79557e-09
1.50198e-09
-9.43053e-09
1.63496e-09
-1.11981e-08
1.76753e-09
-1.30955e-08
1.89741e-09
-1.51174e-08
2.02192e-09
-1.72554e-08
2.13804e-09
-1.94979e-08
2.2425e-09
-2.18297e-08
2.33181e-09
-2.42322e-08
2.40242e-09
-2.66829e-08
2.45078e-09
-2.91564e-08
2.47344e-09
-3.16236e-08
2.46722e-09
-3.40529e-08
2.42931e-09
-3.64103e-08
2.35739e-09
-3.86601e-08
2.24975e-09
-4.07654e-08
2.10538e-09
-4.26895e-08
1.92407e-09
-4.43959e-08
1.70644e-09
-4.58499e-08
1.45398e-09
-4.70189e-08
1.16903e-09
-4.78737e-08
8.5471e-10
-4.83886e-08
5.14945e-10
-4.85436e-08
1.54992e-10
-4.83197e-08
-2.23855e-10
-4.77082e-08
-6.11516e-10
-4.67041e-08
-1.00417e-09
-4.53078e-08
-1.39626e-09
-4.35255e-08
-1.78228e-09
-4.13684e-08
-2.15713e-09
-3.88522e-08
-2.51622e-09
-3.59967e-08
-2.85548e-09
-3.28252e-08
-3.17149e-09
-2.93638e-08
-3.46144e-09
-2.56407e-08
-3.7231e-09
-2.16859e-08
-3.95472e-09
-1.7531e-08
-4.15495e-09
-1.32083e-08
-4.32264e-09
-8.75169e-09
-4.45666e-09
-4.19608e-09
-4.55561e-09
4.21527e-10
-4.6176e-09
5.0632e-09
-4.64168e-09
9.68847e-09
-4.62527e-09
1.42532e-08
-4.56478e-09
1.87112e-08
-4.45791e-09
2.3013e-08
-4.30186e-09
2.71069e-08
-4.09391e-09
3.09388e-08
-3.83185e-09
3.44531e-08
-3.51437e-09
3.75946e-08
-3.14147e-09
4.03094e-08
-2.71484e-09
4.25476e-08
-2.2382e-09
4.42652e-08
-1.71756e-09
4.54267e-08
-1.16145e-09
4.60083e-08
-5.81665e-10
4.59918e-08
1.65083e-11
4.53912e-08
6.0057e-10
4.42216e-08
1.16964e-09
4.25197e-08
1.70192e-09
4.03381e-08
2.18155e-09
3.77444e-08
2.5937e-09
3.48185e-08
2.92594e-09
3.16492e-08
3.16925e-09
2.83304e-08
3.31878e-09
2.49561e-08
3.37437e-09
2.16155e-08
3.3406e-09
1.8389e-08
3.22647e-09
1.53444e-08
3.04459e-09
1.25343e-08
2.81007e-09
9.99519e-09
2.53914e-09
7.74743e-09
2.24776e-09
5.79704e-09
1.95039e-09
4.13799e-09
1.65905e-09
2.75504e-09
1.38294e-09
1.62649e-09
1.12855e-09
7.2631e-10
9.00183e-10
2.55975e-11
7.00712e-10
-5.06624e-10
5.32222e-10
-9.02622e-10
3.95998e-10
-1.19501e-09
2.92384e-10
-1.41533e-09
2.20328e-10
-1.59232e-09
1.76989e-10
-1.75011e-09
1.57785e-10
-1.907e-09
1.56894e-10
-2.07501e-09
1.68011e-10
-2.26017e-09
1.85159e-10
-2.46348e-09
2.03308e-10
-2.68217e-09
2.18693e-10
-2.91103e-09
2.28856e-10
-3.14352e-09
2.32489e-10
-3.37271e-09
2.29193e-10
-3.59194e-09
2.19226e-10
-3.79522e-09
2.03282e-10
-3.97755e-09
1.82327e-10
-4.13502e-09
1.57472e-10
-4.26491e-09
1.29889e-10
-4.36564e-09
1.00737e-10
-4.43676e-09
7.11145e-11
-4.47877e-09
4.20133e-11
-4.49312e-09
1.43439e-11
-4.48171e-09
-1.14052e-11
-4.44732e-09
-3.43931e-11
-4.39285e-09
-5.44668e-11
-4.32148e-09
-7.13737e-11
-4.23642e-09
-8.50555e-11
-4.14084e-09
-9.55802e-11
-4.03773e-09
-1.03115e-10
-3.92983e-09
-1.07902e-10
-3.81959e-09
-1.10235e-10
-3.70915e-09
-1.10438e-10
-3.60031e-09
-1.08844e-10
-3.49453e-09
-1.05782e-10
-3.39296e-09
-1.01564e-10
-3.29649e-09
-9.64757e-11
-3.20571e-09
-9.07752e-11
-3.12103e-09
-8.46853e-11
-3.04263e-09
-7.8396e-11
-2.97056e-09
-7.20644e-11
-2.90475e-09
-6.58174e-11
-2.84499e-09
-5.97542e-11
-2.79104e-09
-5.39496e-11
-2.74259e-09
-4.8458e-11
-2.69927e-09
-4.33155e-11
-2.66073e-09
-3.85443e-11
-2.62657e-09
-3.41545e-11
-2.59642e-09
-3.01474e-11
-2.56991e-09
-2.65168e-11
-2.54666e-09
-2.32512e-11
-2.52632e-09
-2.03348e-11
-2.50857e-09
-1.77492e-11
-2.4931e-09
-1.54739e-11
-2.47961e-09
-1.34872e-11
-2.46784e-09
-1.17663e-11
-2.45756e-09
-1.02886e-11
-2.44852e-09
-9.03077e-12
-2.44056e-09
-7.96939e-12
-2.43347e-09
-7.08037e-12
-2.42714e-09
-6.33739e-12
-2.42143e-09
-5.71244e-12
-2.41625e-09
-5.17378e-12
-2.41157e-09
-4.68429e-12
-2.40737e-09
-4.20149e-12
-2.40369e-09
-3.67846e-12
-2.40062e-09
-3.06893e-12
-2.39828e-09
-2.33669e-12
-2.39681e-09
-1.47371e-12
-2.39635e-09
-4.54456e-13
-2.39688e-09
5.22016e-13
-2.39816e-09
1.28183e-12
-2.39971e-09
1.55072e-12
-2.40061e-09
9.00843e-13
-2.39927e-09
-1.34267e-12
-2.39344e-09
-5.82883e-12
-2.38006e-09
-1.33781e-11
-2.35481e-09
-2.52492e-11
-2.31105e-09
-4.37633e-11
-2.23726e-09
-7.3787e-11
-2.11711e-09
-1.20146e-10
-2.68133e-10
-1.84898e-09
1.88231e-10
-2.80281e-10
6.06511e-10
-6.59241e-10
1.14139e-09
-8.72702e-10
1.7e-09
-9.39653e-10
2.20402e-09
-8.83497e-10
2.58942e-09
-7.27986e-10
2.80548e-09
-4.95162e-10
2.8132e-09
-2.04462e-10
2.58359e-09
1.27801e-10
2.09641e-09
4.88556e-10
1.33629e-09
8.67764e-10
2.93933e-10
1.25855e-09
-1.03749e-09
1.65651e-09
-2.66302e-09
2.05944e-09
-4.58692e-09
2.46675e-09
-6.81334e-09
2.87897e-09
-9.34656e-09
3.29714e-09
-1.21909e-08
3.72224e-09
-1.53504e-08
4.1547e-09
-1.88279e-08
4.59397e-09
-2.26245e-08
5.03821e-09
-2.67381e-08
5.48409e-09
-3.11629e-08
5.92678e-09
-3.58878e-08
6.35987e-09
-4.08959e-08
6.77561e-09
-4.61635e-08
7.16501e-09
-5.16598e-08
7.51815e-09
-5.73461e-08
7.82442e-09
-6.31765e-08
8.07289e-09
-6.90974e-08
8.25265e-09
-7.50481e-08
8.3532e-09
-8.09622e-08
8.36479e-09
-8.67676e-08
8.27886e-09
-9.23887e-08
8.08834e-09
-9.77474e-08
7.78801e-09
-1.02765e-07
7.37471e-09
-1.07363e-07
6.8476e-09
-1.11465e-07
6.20824e-09
-1.15002e-07
5.46062e-09
-1.17907e-07
4.61111e-09
-1.20121e-07
3.66835e-09
-1.21595e-07
2.64294e-09
-1.22287e-07
1.54721e-09
-1.22168e-07
3.95556e-10
-1.21214e-07
-7.98651e-10
-1.1942e-07
-2.01835e-09
-1.16784e-07
-3.24717e-09
-1.13319e-07
-4.46976e-09
-1.09043e-07
-5.67141e-09
-1.03987e-07
-6.83837e-09
-9.81863e-08
-7.95822e-09
-9.16824e-08
-9.02012e-09
-8.4523e-08
-1.00149e-08
-7.67594e-08
-1.09351e-08
-6.84459e-08
-1.17749e-08
-5.96391e-08
-1.25299e-08
-5.03967e-08
-1.31971e-08
-4.07778e-08
-1.37739e-08
-3.0842e-08
-1.42584e-08
-2.06503e-08
-1.46484e-08
-1.02648e-08
-1.49411e-08
2.50119e-10
-1.51325e-08
1.0825e-08
-1.52165e-08
2.13858e-08
-1.51861e-08
3.18551e-08
-1.50341e-08
4.21491e-08
-1.47519e-08
5.21774e-08
-1.43302e-08
6.18426e-08
-1.37591e-08
7.10406e-08
-1.30299e-08
7.96614e-08
-1.21352e-08
8.75906e-08
-1.10706e-08
9.47115e-08
-9.83578e-09
1.00908e-07
-8.43502e-09
1.0607e-07
-6.87871e-09
1.10092e-07
-5.18392e-09
1.12885e-07
-3.37488e-09
1.14384e-07
-1.48257e-09
1.14534e-07
4.50575e-10
1.13326e-07
2.37753e-09
1.10779e-07
4.249e-09
1.06951e-07
6.00997e-09
1.01938e-07
7.60643e-09
9.58768e-08
8.98726e-09
8.89381e-08
1.0108e-08
8.13224e-08
1.09345e-08
7.32502e-08
1.14465e-08
6.4951e-08
1.16398e-08
5.66505e-08
1.1527e-08
4.8558e-08
1.11371e-08
4.08554e-08
1.05126e-08
3.36891e-08
9.70548e-09
2.71649e-08
8.77196e-09
2.13477e-08
7.76757e-09
1.62642e-08
6.74256e-09
1.19081e-08
5.73898e-09
8.24697e-09
4.78973e-09
5.22795e-09
3.9192e-09
2.78366e-09
3.14501e-09
8.36314e-10
2.47957e-09
-6.98475e-10
1.93079e-09
-1.90759e-09
1.5015e-09
-2.87561e-09
1.18835e-09
-3.67992e-09
9.81304e-10
-4.38635e-09
8.64212e-10
-5.04601e-09
8.1656e-10
-5.69416e-09
8.16157e-10
-6.35085e-09
8.41852e-10
-7.02317e-09
8.75628e-10
-7.70823e-09
9.03746e-10
-8.39633e-09
9.16959e-10
-9.07391e-09
9.10069e-10
-9.72588e-09
8.81158e-10
-1.03374e-08
8.3074e-10
-1.08951e-08
7.61001e-10
-1.1388e-08
6.75187e-10
-1.18076e-08
5.77128e-10
-1.21486e-08
4.70889e-10
-1.24084e-08
3.60498e-10
-1.2587e-08
2.49742e-10
-1.2687e-08
1.4202e-10
-1.27129e-08
4.02454e-11
-1.2671e-08
-5.33492e-11
-1.25685e-08
-1.36919e-10
-1.24135e-08
-2.09391e-10
-1.22147e-08
-2.70183e-10
-1.19806e-08
-3.19201e-10
-1.17194e-08
-3.56775e-10
-1.14389e-08
-3.83566e-10
-1.11463e-08
-4.00483e-10
-1.0848e-08
-4.08602e-10
-1.05493e-08
-4.09089e-10
-1.0255e-08
-4.03141e-10
-9.96888e-09
-3.91929e-10
-9.69388e-09
-3.76565e-10
-9.43229e-09
-3.58068e-10
-9.18571e-09
-3.3735e-10
-8.95519e-09
-3.15208e-10
-8.74127e-09
-2.92317e-10
-8.54409e-09
-2.69241e-10
-8.36348e-09
-2.46436e-10
-8.19897e-09
-2.24262e-10
-8.04993e-09
-2.02991e-10
-7.91556e-09
-1.82823e-10
-7.79498e-09
-1.63896e-10
-7.68723e-09
-1.46294e-10
-7.59133e-09
-1.3006e-10
-7.50627e-09
-1.15203e-10
-7.43108e-09
-1.01707e-10
-7.3648e-09
-8.95351e-11
-7.3065e-09
-7.86339e-11
-7.25531e-09
-6.89403e-11
-7.2104e-09
-6.03832e-11
-7.171e-09
-5.28858e-11
-7.13639e-09
-4.6369e-11
-7.10593e-09
-4.07507e-11
-7.07902e-09
-3.59479e-11
-7.05511e-09
-3.18756e-11
-7.03374e-09
-2.84464e-11
-7.01451e-09
-2.5567e-11
-6.99709e-09
-2.31363e-11
-6.98122e-09
-2.10401e-11
-6.96676e-09
-1.91477e-11
-6.95365e-09
-1.73118e-11
-6.94195e-09
-1.53742e-11
-6.93184e-09
-1.31834e-11
-6.92355e-09
-1.06299e-11
-6.91732e-09
-7.69894e-12
-6.91324e-09
-4.53119e-12
-6.91114e-09
-1.58581e-12
-6.91028e-09
4.26721e-13
-6.90903e-09
2.95001e-13
-6.90448e-09
-3.64416e-12
-6.8924e-09
-1.34238e-11
-6.8666e-09
-3.16265e-11
-6.81868e-09
-6.13047e-11
-6.7374e-09
-1.06522e-10
-6.60719e-09
-1.73977e-10
-6.40574e-09
-2.75235e-10
-6.09391e-09
-4.31978e-10
-7.4517e-10
-5.61687e-09
1.70627e-10
-4.50907e-10
5.13563e-10
-1.00218e-09
8.96914e-10
-1.25605e-09
1.21649e-09
-1.25923e-09
1.38733e-09
-1.05434e-09
1.34004e-09
-6.80688e-10
1.01838e-09
-1.73504e-10
3.7733e-10
4.36586e-10
-6.187e-10
1.12383e-09
-1.99748e-09
1.86733e-09
-3.78055e-09
2.65084e-09
-5.98443e-09
3.46243e-09
-8.62187e-09
4.29395e-09
-1.17028e-08
5.14037e-09
-1.5235e-08
5.99889e-09
-1.92241e-08
6.86808e-09
-2.36738e-08
7.74688e-09
-2.85853e-08
8.63371e-09
-3.39562e-08
9.52563e-09
-3.97799e-08
1.04176e-08
-4.6044e-08
1.13023e-08
-5.27293e-08
1.21694e-08
-5.98087e-08
1.30062e-08
-6.7246e-08
1.37972e-08
-7.49956e-08
1.45252e-08
-8.30018e-08
1.51712e-08
-9.1199e-08
1.57154e-08
-9.95124e-08
1.61378e-08
-1.07859e-07
1.6419e-08
-1.16147e-07
1.65408e-08
-1.24281e-07
1.64871e-08
-1.3216e-07
1.62443e-08
-1.39683e-07
1.58021e-08
-1.46749e-07
1.5154e-08
-1.53258e-07
1.42971e-08
-1.59117e-07
1.32331e-08
-1.64237e-07
1.19676e-08
-1.68539e-07
1.05104e-08
-1.71953e-07
8.87505e-09
-1.74421e-07
7.07874e-09
-1.75894e-07
5.14162e-09
-1.76337e-07
3.0863e-09
-1.75728e-07
9.37533e-10
-1.74054e-07
-1.27816e-09
-1.71319e-07
-3.53372e-09
-1.67535e-07
-5.80188e-09
-1.62726e-07
-8.0567e-09
-1.56922e-07
-1.02735e-08
-1.50164e-07
-1.24294e-08
-1.42499e-07
-1.45036e-08
-1.33979e-07
-1.64779e-08
-1.24663e-07
-1.83368e-08
-1.1461e-07
-2.00679e-08
-1.03883e-07
-2.16612e-08
-9.25486e-08
-2.31097e-08
-8.06699e-08
-2.44087e-08
-6.8312e-08
-2.55549e-08
-5.55394e-08
-2.65465e-08
-4.24161e-08
-2.73817e-08
-2.90061e-08
-2.80584e-08
-1.53741e-08
-2.85731e-08
-1.58648e-09
-2.89201e-08
1.22869e-08
-2.90899e-08
2.61709e-08
-2.90701e-08
3.99847e-08
-2.88479e-08
5.36405e-08
-2.84077e-08
6.70421e-08
-2.77318e-08
8.0084e-08
-2.6801e-08
9.26512e-08
-2.5597e-08
1.04619e-07
-2.41031e-08
1.15855e-07
-2.23061e-08
1.26217e-07
-2.01983e-08
1.35561e-07
-1.77792e-08
1.4374e-07
-1.5057e-08
1.50606e-07
-1.20502e-08
1.5602e-07
-8.78951e-09
1.59856e-07
-5.31845e-09
1.62002e-07
-1.6948e-09
1.62372e-07
2.00712e-09
1.60919e-07
5.70195e-09
1.57638e-07
9.29075e-09
1.52575e-07
1.267e-08
1.45829e-07
1.57335e-08
1.37557e-07
1.83791e-08
1.27976e-07
2.0516e-08
1.17349e-07
2.20733e-08
1.05982e-07
2.30072e-08
9.42017e-08
2.33071e-08
8.23409e-08
2.2998e-08
7.07143e-08
2.21392e-08
5.96011e-08
2.08187e-08
4.92292e-08
1.91439e-08
3.97658e-08
1.72309e-08
3.13156e-08
1.51928e-08
2.39231e-08
1.31314e-08
1.75809e-08
1.11319e-08
1.22388e-08
9.26137e-09
7.81338e-09
7.5704e-09
4.19752e-09
6.09543e-09
1.26837e-09
4.85993e-09
-1.1042e-09
3.87407e-09
-3.04911e-09
3.13326e-09
-4.68552e-09
2.61772e-09
-6.11575e-09
2.29444e-09
-7.42055e-09
2.12137e-09
-8.65727e-09
2.05287e-09
-9.86073e-09
2.04531e-09
-1.10464e-08
2.06131e-09
-1.22148e-08
2.0721e-09
-1.33559e-08
2.05803e-09
-1.44536e-08
2.00778e-09
-1.54892e-08
1.9168e-09
-1.64442e-08
1.7857e-09
-1.73018e-08
1.61863e-09
-1.80486e-08
1.42201e-09
-1.8675e-08
1.2035e-09
-1.91754e-08
9.71264e-10
-1.95482e-08
7.33362e-10
-1.97958e-08
4.97313e-10
-1.99236e-08
2.69791e-10
-1.99397e-08
5.64122e-11
-1.98547e-08
-1.38422e-10
-1.96801e-08
-3.11479e-10
-1.94287e-08
-4.60755e-10
-1.91136e-08
-5.85335e-10
-1.87475e-08
-6.85272e-10
-1.83429e-08
-7.61425e-10
-1.79111e-08
-8.15291e-10
-1.74628e-08
-8.48836e-10
-1.70071e-08
-8.64329e-10
-1.65519e-08
-8.64202e-10
-1.61042e-08
-8.50924e-10
-1.56692e-08
-8.26902e-10
-1.52513e-08
-7.94408e-10
-1.48539e-08
-7.55524e-10
-1.44791e-08
-7.12109e-10
-1.41286e-08
-6.65784e-10
-1.38029e-08
-6.1793e-10
-1.35025e-08
-5.69697e-10
-1.32269e-08
-5.22017e-10
-1.29755e-08
-4.75626e-10
-1.27474e-08
-4.31088e-10
-1.25415e-08
-3.88816e-10
-1.23563e-08
-3.49096e-10
-1.21904e-08
-3.12108e-10
-1.20425e-08
-2.77947e-10
-1.19111e-08
-2.46638e-10
-1.17947e-08
-2.18151e-10
-1.16918e-08
-1.92414e-10
-1.16011e-08
-1.69324e-10
-1.15213e-08
-1.48755e-10
-1.14511e-08
-1.30561e-10
-1.13894e-08
-1.14589e-10
-1.13351e-08
-1.00675e-10
-1.12872e-08
-8.86524e-11
-1.12448e-08
-7.83494e-11
-1.12071e-08
-6.95912e-11
-1.11733e-08
-6.21967e-11
-1.11429e-08
-5.59744e-11
-1.11153e-08
-5.07162e-11
-1.10902e-08
-4.61896e-11
-1.10672e-08
-4.21326e-11
-1.10463e-08
-3.82535e-11
-1.10274e-08
-3.42464e-11
-1.10107e-08
-2.98298e-11
-1.09966e-08
-2.48191e-11
-1.0985e-08
-1.92395e-11
-1.09761e-08
-1.34761e-11
-1.09692e-08
-8.46503e-12
-1.09629e-08
-5.82311e-12
-1.09546e-08
-8.05584e-12
-1.09397e-08
-1.85719e-11
-1.09115e-08
-4.16296e-11
-1.08607e-08
-8.23899e-11
-1.07751e-08
-1.46941e-10
-1.06387e-08
-2.42896e-10
-1.04314e-08
-3.81298e-10
-1.01267e-08
-5.79923e-10
-9.68818e-09
-8.70477e-10
-1.31469e-09
-9.11865e-09
7.50893e-11
-5.25997e-10
1.58734e-10
-1.08582e-09
1.36072e-10
-1.23339e-09
-8.42469e-11
-1.03891e-09
-5.7589e-10
-5.62694e-10
-1.39903e-09
1.42449e-10
-2.60311e-09
1.03058e-09
-4.22912e-09
2.0626e-09
-6.31104e-09
3.20575e-09
-8.87705e-09
4.43334e-09
-1.19504e-08
5.72422e-09
-1.55501e-08
7.06214e-09
-1.96912e-08
8.43499e-09
-2.43846e-08
9.83382e-09
-2.96375e-08
1.12518e-08
-3.54524e-08
1.2683e-08
-4.18266e-08
1.41211e-08
-4.87511e-08
1.55582e-08
-5.62097e-08
1.69842e-08
-6.41774e-08
1.83854e-08
-7.26197e-08
1.97446e-08
-8.14915e-08
2.10412e-08
-9.07363e-08
2.22509e-08
-1.00286e-07
2.33472e-08
-1.10063e-07
2.43015e-08
-1.19976e-07
2.50846e-08
-1.29928e-07
2.56676e-08
-1.39814e-07
2.60232e-08
-1.49521e-07
2.61269e-08
-1.58938e-07
2.59574e-08
-1.67949e-07
2.54983e-08
-1.76443e-07
2.47381e-08
-1.84312e-07
2.36707e-08
-1.91454e-07
2.22962e-08
-1.97777e-07
2.06203e-08
-2.03198e-07
1.86542e-08
-2.07645e-07
1.64148e-08
-2.11058e-07
1.39236e-08
-2.1339e-07
1.12066e-08
-2.14605e-07
8.2933e-09
-2.14679e-07
5.21618e-09
-2.13603e-07
2.01013e-09
-2.11377e-07
-1.28798e-09
-2.08014e-07
-4.64114e-09
-2.03536e-07
-8.0125e-09
-1.97971e-07
-1.13667e-08
-1.91358e-07
-1.467e-08
-1.83741e-07
-1.78903e-08
-1.75171e-07
-2.09987e-08
-1.65706e-07
-2.39692e-08
-1.55404e-07
-2.67795e-08
-1.4433e-07
-2.94114e-08
-1.32547e-07
-3.18505e-08
-1.20122e-07
-3.40863e-08
-1.0712e-07
-3.61121e-08
-9.36042e-08
-3.79241e-08
-7.96382e-08
-3.9521e-08
-6.52821e-08
-4.09026e-08
-5.05946e-08
-4.20692e-08
-3.56332e-08
-4.30198e-08
-2.04548e-08
-4.37515e-08
-5.11723e-09
-4.42577e-08
1.03207e-08
-4.45279e-08
2.5796e-08
-4.45454e-08
4.12379e-08
-4.42898e-08
5.65688e-08
-4.37386e-08
7.17019e-08
-4.28649e-08
8.65407e-08
-4.16398e-08
1.00978e-07
-4.00339e-08
1.14894e-07
-3.80194e-08
1.2816e-07
-3.55723e-08
1.40636e-07
-3.26747e-08
1.52174e-07
-2.93172e-08
1.62618e-07
-2.55009e-08
1.71808e-07
-2.124e-08
1.79582e-07
-1.65636e-08
1.85781e-07
-1.15177e-08
1.90254e-07
-6.16725e-09
1.9286e-07
-5.99001e-10
1.93478e-07
5.08355e-09
1.92026e-07
1.07433e-08
1.88461e-07
1.62344e-08
1.82799e-07
2.13963e-08
1.75116e-07
2.60622e-08
1.65562e-07
3.00695e-08
1.54364e-07
3.32719e-08
1.41816e-07
3.55542e-08
1.28278e-07
3.68453e-08
1.14147e-07
3.71288e-08
9.98382e-08
3.64483e-08
8.57522e-08
3.49047e-08
7.22498e-08
3.26463e-08
5.96279e-08
2.98528e-08
4.81051e-08
2.67156e-08
3.7817e-08
2.34196e-08
2.88195e-08
2.01294e-08
2.10986e-08
1.69823e-08
1.4583e-08
1.4086e-08
9.15798e-09