/*--------------------------------*- C++ -*----------------------------------*\
  =========                 |
  \\      /  F ield         | OpenFOAM: The Open Source CFD Toolbox
   \\    /   O peration     | Website:  https://openfoam.org
    \\  /    A nd           | Version:  8
     \\/     M anipulation  |
\*---------------------------------------------------------------------------*/
FoamFile
{
    version     2.0;
    format      ascii;
    class       volVectorField;
    location    "0.62";
    object      U;
}
// * * * * * * * * * * * * * * * * * * * * * * * * * * * * * * * * * * * * * //

dimensions      [0 1 -1 0 0 0 0];

internalField   nonuniform List<vector> 
12225
(
(-9.1108e-06 1.24113e-06 0)
(-4.87252e-06 -6.79139e-07 0)
(3.44196e-05 -1.79064e-06 0)
(9.99439e-05 -2.82497e-06 0)
(0.000188263 -3.76642e-06 0)
(0.000296372 -4.70845e-06 0)
(0.00042274 -5.68531e-06 0)
(0.000566517 -6.74283e-06 0)
(0.00072763 -7.94093e-06 0)
(0.000906966 -9.38129e-06 0)
(0.00110679 -1.12371e-05 0)
(0.00133125 -1.3803e-05 0)
(0.00158701 -1.7603e-05 0)
(0.00188308 -2.34953e-05 0)
(0.00222817 -3.16449e-05 0)
(0.00262417 -3.43327e-05 0)
(0.00299441 -5.71274e-05 0)
(0.000666842 0.00169639 0)
(-1.86824e-05 3.29011e-06 0)
(5.08681e-06 -1.05502e-05 0)
(0.000124322 -2.48034e-05 0)
(0.000318631 -3.78584e-05 0)
(0.000578476 -5.01828e-05 0)
(0.00089539 -6.23311e-05 0)
(0.00126447 -7.47178e-05 0)
(0.00168251 -8.77363e-05 0)
(0.00214811 -0.000101894 0)
(0.00266189 -0.000117951 0)
(0.00322688 -0.000137024 0)
(0.00384858 -0.000160608 0)
(0.00453339 -0.000190247 0)
(0.00528111 -0.000225607 0)
(0.00606263 -0.00025419 0)
(0.00673883 -0.00019778 0)
(0.00688878 0.000294871 0)
(0.00235592 0.00415227 0)
(-2.17002e-05 4.10057e-06 0)
(3.31862e-05 -3.37495e-05 0)
(0.00023667 -7.48953e-05 0)
(0.000561074 -0.000113008 0)
(0.00099157 -0.000149215 0)
(0.0015146 -0.000184794 0)
(0.00212146 -0.000220798 0)
(0.00280574 -0.000258162 0)
(0.00356326 -0.000298017 0)
(0.00439187 -0.000341905 0)
(0.00529116 -0.000391733 0)
(0.00626045 -0.000449089 0)
(0.0072925 -0.000512617 0)
(0.00835438 -0.000569071 0)
(0.00933975 -0.000560717 0)
(0.00992223 -0.000263745 0)
(0.00938441 0.00114571 0)
(0.00401817 0.00712376 0)
(-1.97619e-05 8.76314e-07 0)
(7.70729e-05 -7.45358e-05 0)
(0.000369068 -0.000157827 0)
(0.000823904 -0.000235763 0)
(0.00142226 -0.000310084 0)
(0.00214587 -0.000382919 0)
(0.00298177 -0.000456092 0)
(0.00391941 -0.000531115 0)
(0.00495012 -0.000609641 0)
(0.00606619 -0.000693601 0)
(0.00725918 -0.00078458 0)
(0.00851494 -0.000881367 0)
(0.0098013 -0.000972659 0)
(0.0110379 -0.00101623 0)
(0.0120314 -0.000876505 0)
(0.0123157 -0.000138537 0)
(0.0110796 0.00243869 0)
(0.00567702 0.0102775 0)
(-1.42339e-05 -9.62229e-06 0)
(0.000134007 -0.000136987 0)
(0.000518116 -0.000277825 0)
(0.00110233 -0.000410814 0)
(0.00186342 -0.00053798 0)
(0.00277879 -0.000662234 0)
(0.0038308 -0.000786085 0)
(0.00500371 -0.000911376 0)
(0.00628257 -0.00103974 0)
(0.00765132 -0.00117239 0)
(0.00908923 -0.0013083 0)
(0.0105628 -0.00143879 0)
(0.0120082 -0.00153353 0)
(0.0132948 -0.00150529 0)
(0.0141588 -0.00112018 0)
(0.0140792 0.000222096 0)
(0.0123273 0.00400207 0)
(0.00731819 0.0132741 0)
(-6.24665e-06 -3.05127e-05 0)
(0.000200844 -0.000225598 0)
(0.0006793 -0.000439651 0)
(0.0013899 -0.000643261 0)
(0.00230584 -0.000838311 0)
(0.00340047 -0.00102824 0)
(0.00465108 -0.00121589 0)
(0.00603577 -0.00140286 0)
(0.00753166 -0.00158973 0)
(0.00911188 -0.00177518 0)
(0.0107402 -0.00195229 0)
(0.0123604 -0.00209934 0)
(0.0138762 -0.00215799 0)
(0.0151148 -0.00198502 0)
(0.0157747 -0.00124587 0)
(0.0153601 0.000800249 0)
(0.0133258 0.00569043 0)
(0.0089216 0.0159745 0)
(3.23528e-06 -6.46887e-05 0)
(0.000274039 -0.000345016 0)
(0.000846967 -0.000648246 0)
(0.00167848 -0.000938171 0)
(0.00273814 -0.00121615 0)
(0.00399549 -0.00148573 0)
(0.00542244 -0.00174946 0)
(0.00699015 -0.00200774 0)
(0.00866652 -0.00225864 0)
(0.0104122 -0.00249584 0)
(0.0121738 -0.00270284 0)
(0.0138725 -0.0028393 0)
(0.0153841 -0.00281242 0)
(0.0165099 -0.00241978 0)
(0.0169472 -0.00124088 0)
(0.0162834 0.00154299 0)
(0.0141868 0.00739072 0)
(0.0104756 0.018332 0)
(1.33748e-05 -0.000114759 0)
(0.000349685 -0.000499652 0)
(0.00101435 -0.00090815 0)
(0.00195817 -0.00129981 0)
(0.00314673 -0.00167527 0)
(0.00454594 -0.00203762 0)
(0.0061222 -0.00238825 0)
(0.00783931 -0.00272509 0)
(0.00965526 -0.00304177 0)
(0.0115176 -0.0033243 0)
(0.0133565 -0.00354288 0)
(0.0150733 -0.00363437 0)
(0.0165251 -0.00346889 0)
(0.0175073 -0.00279012 0)
(0.0177477 -0.00111793 0)
(0.0169461 0.00238179 0)
(0.0149676 0.0090079 0)
(0.0119701 0.0203175 0)
(2.34426e-05 -0.000182865 0)
(0.000423583 -0.000693259 0)
(0.00117365 -0.00122297 0)
(0.00221738 -0.00173103 0)
(0.00351587 -0.00221743 0)
(0.00503158 -0.00268423 0)
(0.00672554 -0.00313051 0)
(0.00855421 -0.00355021 0)
(0.0104659 -0.00393043 0)
(0.0123959 -0.00424686 0)
(0.0142602 -0.0044534 0)
(0.0159464 -0.00446211 0)
(0.0173047 -0.00410798 0)
(0.0181424 -0.00309307 0)
(0.0182406 -0.000908977 0)
(0.0174159 0.00324167 0)
(0.0156889 0.0104604 0)
(0.0133907 0.021906 0)
(3.279e-05 -0.000270443 0)
(0.000491324 -0.000928409 0)
(0.00131618 -0.00159474 0)
(0.002443 -0.00223259 0)
(0.00382787 -0.00284173 0)
(0.00543011 -0.00342256 0)
(0.00720587 -0.00397069 0)
(0.00910499 -0.00447439 0)
(0.0110672 -0.00491219 0)
(0.0130178 -0.00524719 0)
(0.0148629 -0.00541538 0)
(0.0164838 -0.00530457 0)
(0.0177351 -0.00472084 0)
(0.0184515 -0.00334127 0)
(0.0184765 -0.000659731 0)
(0.0177322 0.00404745 0)
(0.0163465 0.011679 0)
(0.0147158 0.0230756 0)
(4.08344e-05 -0.000378072 0)
(0.000548384 -0.00120582 0)
(0.00143256 -0.00202319 0)
(0.00262061 -0.00280235 0)
(0.00406342 -0.00354373 0)
(0.00571761 -0.00424561 0)
(0.00753544 -0.00489892 0)
(0.00946152 -0.00548471 0)
(0.0114292 -0.00597119 0)
(0.0133573 -0.00630746 0)
(0.0151472 -0.00641152 0)
(0.0166821 -0.00615016 0)
(0.0178309 -0.00530975 0)
(0.018464 -0.0035604 0)
(0.0184881 -0.000423962 0)
(0.0179087 0.00472816 0)
(0.0169181 0.0126058 0)
(0.0159152 0.0238053 0)
(4.66707e-05 -0.000494862 0)
(0.000586927 -0.00149715 0)
(0.00150649 -0.00246465 0)
(0.00272575 -0.00338166 0)
(0.00419102 -0.00425036 0)
(0.00585717 -0.00506695 0)
(0.00767426 -0.0058172 0)
(0.00958404 -0.00647433 0)
(0.0115168 -0.00699605 0)
(0.0133894 -0.00731832 0)
(0.0151042 -0.00734405 0)
(0.0165525 -0.00692548 0)
(0.017623 -0.00584061 0)
(0.0182213 -0.00376827 0)
(0.0183049 -0.000272891 0)
(0.0179345 0.00517988 0)
(0.0173295 0.0131484 0)
(0.0168623 0.0240593 0)
(5.12928e-05 -0.000624466 0)
(0.000610666 -0.00181411 0)
(0.00154514 -0.00293809 0)
(0.00277025 -0.00399638 0)
(0.0042281 -0.004994 0)
(0.00587277 -0.00592512 0)
(0.00765367 -0.00676988 0)
(0.00951184 -0.00749313 0)
(0.0113774 -0.00804182 0)
(0.0131687 -0.00833935 0)
(0.0147938 -0.00827594 0)
(0.0161564 -0.0076943 0)
(0.0171678 -0.00637236 0)
(0.0177673 -0.00400826 0)
(0.0179541 -0.000217684 0)
(0.0178252 0.00544054 0)
(0.017606 0.0133946 0)
(0.017631 0.0239419 0)
(5.45945e-05 -0.000786247 0)
(0.000615041 -0.00220569 0)
(0.00153529 -0.00351441 0)
(0.00272893 -0.00473631 0)
(0.00413478 -0.00588118 0)
(0.00570761 -0.00694111 0)
(0.00739856 -0.00788961 0)
(0.00915107 -0.00868171 0)
(0.0108991 -0.00925233 0)
(0.0125674 -0.00951221 0)
(0.0140757 -0.00934091 0)
(0.0153457 -0.0085771 0)
(0.0163153 -0.00700837 0)
(0.0169577 -0.00436538 0)
(0.0173062 -0.000328135 0)
(0.0174789 0.00544549 0)
(0.0176906 0.0132624 0)
(0.0182274 0.0233131 0)
(5.48018e-05 -0.000979513 0)
(0.000585422 -0.00267022 0)
(0.00144299 -0.00418887 0)
(0.0025445 -0.00559235 0)
(0.0038289 -0.0068983 0)
(0.00525444 -0.00809718 0)
(0.00677784 -0.0091555 0)
(0.00834969 -0.0100179 0)
(0.00991338 -0.0106071 0)
(0.0114067 -0.0108229 0)
(0.0127668 -0.0105382 0)
(0.0139385 -0.00959518 0)
(0.0148873 -0.00780169 0)
(0.0156155 -0.00493259 0)
(0.016179 -0.000740416 0)
(0.0167002 0.00501923 0)
(0.0173684 0.0125468 0)
(0.0184173 0.0219486 0)
(4.94976e-05 -0.00119383 0)
(0.000502398 -0.00318217 0)
(0.00122352 -0.0049236 0)
(0.00214158 -0.0065148 0)
(0.00320277 -0.00798519 0)
(0.00437355 -0.00932516 0)
(0.00562154 -0.0104952 0)
(0.00691074 -0.0114305 0)
(0.00820094 -0.0120439 0)
(0.00944965 -0.0122272 0)
(0.010617 -0.0118525 0)
(0.0116734 -0.0107735 0)
(0.0126097 -0.00882701 0)
(0.0134489 -0.00583894 0)
(0.0142554 -0.00163512 0)
(0.0151405 0.00394006 0)
(0.0162583 0.0109992 0)
(0.0177893 0.0195847 0)
(3.5886e-05 -0.00139918 0)
(0.00034361 -0.00367001 0)
(0.000825897 -0.00561698 0)
(0.00143452 -0.00737738 0)
(0.00213388 -0.00899573 0)
(0.00290526 -0.0104652 0)
(0.00373343 -0.0117434 0)
(0.00460249 -0.0127597 0)
(0.00549536 -0.0134208 0)
(0.00639523 -0.0136161 0)
(0.00728904 -0.0132228 0)
(0.00817286 -0.0121115 0)
(0.00905853 -0.0101517 0)
(0.00998013 -0.00721957 0)
(0.0109987 -0.00320634 0)
(0.0122029 0.00197045 0)
(0.0137064 0.00835529 0)
(0.0156396 0.0159445 0)
(1.12568e-05 -0.00153176 0)
(9.08572e-05 -0.00398373 0)
(0.000210567 -0.00605916 0)
(0.000357776 -0.00792454 0)
(0.000527622 -0.00963897 0)
(0.000723015 -0.0112021 0)
(0.000950767 -0.0125738 0)
(0.00121987 -0.0136841 0)
(0.00154078 -0.0144403 0)
(0.00192571 -0.0147353 0)
(0.00238995 -0.0144555 0)
(0.0029542 -0.0134895 0)
(0.00364733 -0.0117362 0)
(0.00450897 -0.00911183 0)
(0.00559079 -0.00555659 0)
(0.00695609 -0.00103995 0)
(0.00867775 0.00443544 0)
(0.0108419 0.0108331 0)
(-2.64112e-05 -0.00148024 0)
(-0.000248549 -0.00386312 0)
(-0.000599931 -0.00588581 0)
(-0.00104861 -0.00771144 0)
(-0.00156152 -0.0094042 0)
(-0.00211206 -0.0109723 0)
(-0.00267156 -0.0123852 0)
(-0.00320696 -0.0135827 0)
(-0.00368122 -0.0144822 0)
(-0.0040542 -0.0149873 0)
(-0.00428347 -0.0149974 0)
(-0.00432494 -0.0144174 0)
(-0.00413332 -0.013166 0)
(-0.00366268 -0.0111829 0)
(-0.00286739 -0.00843352 0)
(-0.00170264 -0.00491127 0)
(-0.000124065 -0.000637705 0)
(0.00191736 0.00433845 0)
(-5.2747e-05 -0.00120921 0)
(-0.000505312 -0.00321588 0)
(-0.00122299 -0.00495977 0)
(-0.0021437 -0.00655807 0)
(-0.00321159 -0.00806228 0)
(-0.00438879 -0.00948498 0)
(-0.00563679 -0.0108081 0)
(-0.00691095 -0.0119874 0)
(-0.0081602 -0.0129574 0)
(-0.00932802 -0.0136385 0)
(-0.0103542 -0.0139457 0)
(-0.0111772 -0.0137972 0)
(-0.0117365 -0.0131224 0)
(-0.0119752 -0.0118689 0)
(-0.0118422 -0.0100067 0)
(-0.0112944 -0.00752996 0)
(-0.0102946 -0.00445759 0)
(-0.00880507 -0.000831278 0)
(-6.21448e-05 -0.000903769 0)
(-0.000616305 -0.00248985 0)
(-0.00150623 -0.00391544 0)
(-0.00265985 -0.00524183 0)
(-0.00401565 -0.0065037 0)
(-0.00553472 -0.00771495 0)
(-0.00717808 -0.0088676 0)
(-0.00890033 -0.00993203 0)
(-0.0106485 -0.0108599 0)
(-0.0123623 -0.011589 0)
(-0.0139762 -0.0120506 0)
(-0.0154215 -0.0121764 0)
(-0.0166296 -0.0119057 0)
(-0.0175359 -0.0111915 0)
(-0.0180823 -0.0100042 0)
(-0.0182207 -0.00833379 0)
(-0.0179112 -0.00619025 0)
(-0.0171182 -0.00360272 0)
(-5.91904e-05 -0.000612824 0)
(-0.00062121 -0.00179074 0)
(-0.00154542 -0.002896 0)
(-0.00276261 -0.00393812 0)
(-0.00421509 -0.00493647 0)
(-0.0058673 -0.00590487 0)
(-0.00768401 -0.00684286 0)
(-0.00962444 -0.0077332 0)
(-0.0116403 -0.00854282 0)
(-0.0136755 -0.00922628 0)
(-0.0156666 -0.00973093 0)
(-0.0175457 -0.0100027 0)
(-0.0192427 -0.0099916 0)
(-0.0206898 -0.00965691 0)
(-0.0218247 -0.00897032 0)
(-0.0225938 -0.00791817 0)
(-0.022953 -0.00650206 0)
(-0.0228637 -0.00473939 0)
(-4.77864e-05 -0.000375263 0)
(-0.000552211 -0.00120518 0)
(-0.00141378 -0.00202304 0)
(-0.00257301 -0.00280121 0)
(-0.00397998 -0.00354849 0)
(-0.00560335 -0.00427788 0)
(-0.00741286 -0.00499362 0)
(-0.00937447 -0.00568738 0)
(-0.0114478 -0.00633823 0)
(-0.0135848 -0.00691485 0)
(-0.0157295 -0.00737926 0)
(-0.01782 -0.00769098 0)
(-0.0197906 -0.00781135 0)
(-0.0215753 -0.00770714 0)
(-0.0231117 -0.00735352 0)
(-0.0243439 -0.00673569 0)
(-0.0252245 -0.0058498 0)
(-0.0257127 -0.00470398 0)
(-3.18071e-05 -0.000202598 0)
(-0.000442353 -0.000759465 0)
(-0.00118537 -0.001337 0)
(-0.00221282 -0.00188823 0)
(-0.00348268 -0.00241656 0)
(-0.0049672 -0.00293363 0)
(-0.00664092 -0.00344587 0)
(-0.00847685 -0.00395053 0)
(-0.0104433 -0.00443536 0)
(-0.0125018 -0.00488002 0)
(-0.0146062 -0.00525863 0)
(-0.0167036 -0.00554273 0)
(-0.0187365 -0.00570418 0)
(-0.020645 -0.00571786 0)
(-0.0223704 -0.00556378 0)
(-0.0238585 -0.0052285 0)
(-0.0250618 -0.00470577 0)
(-0.0259392 -0.00399776 0)
(-1.45432e-05 -9.04221e-05 0)
(-0.000318923 -0.000445366 0)
(-0.000920047 -0.000831699 0)
(-0.00177958 -0.00119913 0)
(-0.00286191 -0.00154929 0)
(-0.00414208 -0.00189204 0)
(-0.00559905 -0.002234 0)
(-0.0072123 -0.00257535 0)
(-0.00895835 -0.0029095 0)
(-0.0108082 -0.00322406 0)
(-0.0127259 -0.0035025 0)
(-0.014669 -0.00372604 0)
(-0.0165897 -0.00387562 0)
(-0.0184368 -0.00393366 0)
(-0.0201589 -0.0038855 0)
(-0.0217065 -0.00372042 0)
(-0.0230349 -0.00343215 0)
(-0.0241058 -0.0030196 0)
(1.37793e-06 -2.6896e-05 0)
(-0.000201858 -0.00023924 0)
(-0.000659832 -0.000479842 0)
(-0.00134085 -0.000706322 0)
(-0.00221419 -0.000920301 0)
(-0.00325759 -0.00112945 0)
(-0.0044541 -0.00133927 0)
(-0.00578889 -0.00155105 0)
(-0.00724559 -0.00176159 0)
(-0.00880363 -0.00196391 0)
(-0.0104367 -0.00214822 0)
(-0.0121124 -0.00230311 0)
(-0.0137934 -0.00241672 0)
(-0.0154386 -0.00247781 0)
(-0.0170052 -0.00247663 0)
(-0.0184512 -0.00240567 0)
(-0.0197373 -0.00225992 0)
(-0.0208302 -0.0020371 0)
(1.381e-05 1.93676e-06 0)
(-0.000104376 -0.000113844 0)
(-0.000430728 -0.000248547 0)
(-0.000937667 -0.000373265 0)
(-0.00159888 -0.000489845 0)
(-0.00239532 -0.000603516 0)
(-0.00331404 -0.00071811 0)
(-0.00434502 -0.000834902 0)
(-0.00547772 -0.000952566 0)
(-0.00669862 -0.00106756 0)
(-0.00798969 -0.00117471 0)
(-0.00932798 -0.00126781 0)
(-0.010686 -0.0013403 0)
(-0.0120329 -0.00138579 0)
(-0.0133357 -0.00139861 0)
(-0.0145612 -0.00137416 0)
(-0.0156774 -0.00130916 0)
(-0.0166574 -0.00120145 0)
(2.081e-05 9.43751e-06 0)
(-3.42844e-05 -4.45615e-05 0)
(-0.000246237 -0.000107601 0)
(-0.000590986 -0.000164717 0)
(-0.00104736 -0.000217442 0)
(-0.00160052 -0.0002687 0)
(-0.00224146 -0.000320614 0)
(-0.00296408 -0.000374012 0)
(-0.00376238 -0.000428463 0)
(-0.00462839 -0.00048247 0)
(-0.00555096 -0.000533741 0)
(-0.00651526 -0.000579476 0)
(-0.007503 -0.00061665 0)
(-0.00849304 -0.000642272 0)
(-0.00946239 -0.00065361 0)
(-0.0103873 -0.000648375 0)
(-0.0112443 -0.000624836 0)
(-0.0120137 -0.000581474 0)
(2.03794e-05 6.92672e-06 0)
(4.64407e-06 -1.17382e-05 0)
(-0.000111034 -3.25647e-05 0)
(-0.000308134 -5.08932e-05 0)
(-0.000572257 -6.75327e-05 0)
(-0.000893822 -8.36476e-05 0)
(-0.00126763 -0.000100055 0)
(-0.00169066 -0.000117106 0)
(-0.00216018 -0.000134719 0)
(-0.00267236 -0.000152453 0)
(-0.00322147 -0.000169598 0)
(-0.00379955 -0.000185268 0)
(-0.00439639 -0.000198485 0)
(-0.00499991 -0.000208269 0)
(-0.00559671 -0.000213699 0)
(-0.00617263 -0.000213978 0)
(-0.00671336 -0.000208455 0)
(-0.00720691 -0.000196309 0)
(1.06885e-05 2.20069e-06 0)
(1.1703e-05 -4.95394e-07 0)
(-2.3982e-05 -2.21314e-06 0)
(-8.79467e-05 -3.62315e-06 0)
(-0.000174606 -4.84017e-06 0)
(-0.000280461 -6.00981e-06 0)
(-0.000403838 -7.21748e-06 0)
(-0.000543951 -8.50341e-06 0)
(-0.000700184 -9.86949e-06 0)
(-0.000871583 -1.12877e-05 0)
(-0.00105654 -1.27066e-05 0)
(-0.00125267 -1.40599e-05 0)
(-0.00145678 -1.52713e-05 0)
(-0.00166497 -1.62619e-05 0)
(-0.00187283 -1.6955e-05 0)
(-0.00207559 -1.72855e-05 0)
(-0.00226823 -1.71547e-05 0)
(-0.00244655 -1.64114e-05 0)
(2.14608e-05 -4.90423e-05 4.48526e-24)
(0.000173718 -0.000126014 -6.20682e-24)
(0.000432549 -0.000176986 0)
(0.000760144 -0.00020228 0)
(0.00110655 -0.000207853 0)
(0.00143411 -0.000199051 3.68805e-24)
(0.00171552 -0.000180508 0)
(0.00193097 -0.000156121 0)
(0.00206665 -0.000128935 0)
(0.00211351 -0.000101076 0)
(0.00206659 -7.37742e-05 1.00543e-23)
(0.00192357 -4.79361e-05 0)
(0.00168341 -2.38443e-05 0)
(0.00134593 -1.32918e-06 0)
(0.000911098 2.00502e-05 0)
(0.000378438 4.0897e-05 3.23077e-23)
(-0.000253258 6.18958e-05 0)
(-0.000986072 8.37478e-05 0)
(-0.00182287 0.000107112 0)
(-0.00276711 0.000132548 0)
(-0.00382256 0.000160479 0)
(-0.00499289 0.000191171 0)
(-0.00628124 0.000224727 0)
(-0.00768979 0.000261086 7.96872e-23)
(-0.00921928 0.000300027 -8.59764e-23)
(-0.0108686 0.000341173 9.21183e-23)
(-0.0126344 0.000383991 9.80058e-23)
(-0.0145107 0.000427801 0)
(-0.0164889 0.00047178 0)
(-0.018557 0.000514966 -1.12869e-22)
(-0.0206999 0.000556272 -1.16409e-22)
(-0.0228995 0.000594507 0)
(-0.025134 0.000628398 0)
(-0.0273791 0.00065663 -1.20574e-22)
(-0.0296073 0.000677883 0)
(-0.0317889 0.00069089 0)
(-0.0338922 0.000694484 1.11782e-22)
(-0.0358843 0.000687663 0)
(-0.0377316 0.000669642 9.69953e-23)
(-0.0394005 0.000639909 1.73356e-22)
(-0.0408585 0.00059827 0)
(-0.0420747 0.00054487 0)
(-0.0430204 0.000480168 0)
(-0.0436704 0.000404907 0)
(-0.0440031 0.000320261 0)
(-0.0440004 0.000228259 -3.03488e-23)
(-0.0436489 0.000129779 -7.55195e-23)
(-0.0429417 2.67212e-05 -1.22814e-22)
(-0.0418764 -7.86953e-05 0)
(-0.0404552 -0.000184406 2.21501e-22)
(-0.0386854 -0.000288467 0)
(-0.0365787 -0.000389073 -3.21393e-22)
(-0.0341508 -0.000484603 -3.70069e-22)
(-0.0314207 -0.000573671 0)
(-0.0284104 -0.000655138 0)
(-0.0251442 -0.000728118 0)
(-0.0216483 -0.000791949 -5.39636e-22)
(-0.0179503 -0.000846157 0)
(-0.014079 -0.000890398 0)
(-0.0100642 -0.00092439 0)
(-0.005937 -0.000947746 0)
(-0.00173051 -0.000959644 0)
(0.00252115 -0.000958923 0)
(0.0067835 -0.000945252 0)
(0.0110175 -0.000919023 0)
(0.0151813 -0.000880258 5.80467e-22)
(0.0192309 -0.000828707 0)
(0.0231195 -0.000764193 0)
(0.026798 -0.000686788 -4.61893e-22)
(0.0302151 -0.000596927 -4.12155e-22)
(0.0333191 -0.000495516 0)
(0.0360585 -0.000384004 3.01981e-22)
(0.0383842 -0.000264433 -2.43416e-22)
(0.0402514 -0.00013943 0)
(0.041622 -1.22117e-05 1.24503e-22)
(0.0424666 0.000113141 0)
(0.0427644 0.000232184 0)
(0.0425115 0.00034476 4.21358e-23)
(0.0417196 0.000444 0)
(0.0404121 0.000526764 -1.33713e-22)
(0.0386288 0.000590921 0)
(0.0364248 0.000634907 2.03048e-22)
(0.0338681 0.000658114 2.28517e-22)
(0.0310371 0.000661035 2.47825e-22)
(0.028017 0.000645234 5.22436e-22)
(0.024896 0.000613206 -5.38265e-22)
(0.0217604 0.000568138 0)
(0.0186904 0.000513633 0)
(0.0157562 0.000453394 0)
(0.0130151 0.000390925 -5.184e-22)
(0.0105096 0.000329283 -5.00166e-22)
(0.00826705 0.000270892 4.79492e-22)
(0.00630018 0.000217453 0)
(0.00460928 0.000169933 -4.35278e-22)
(0.00318452 0.000128664 -4.13435e-22)
(0.00200866 9.35039e-05 -3.92565e-22)
(0.00105942 6.40684e-05 0)
(0.000311144 3.99402e-05 0)
(-0.000264163 2.08232e-05 0)
(-0.000696198 6.54984e-06 -3.24318e-22)
(-0.00101562 -3.00194e-06 0)
(-0.00125288 -8.08796e-06 0)
(-0.00143674 -9.19946e-06 2.9245e-22)
(-0.00159242 -7.08789e-06 0)
(-0.00174021 -2.69725e-06 0)
(-0.00189452 2.97095e-06 2.74942e-22)
(-0.00206383 8.99982e-06 0)
(-0.00225131 1.46579e-05 0)
(-0.0024559 1.94405e-05 -2.65296e-22)
(-0.00267358 2.30603e-05 -2.62719e-22)
(-0.00289855 2.54065e-05 0)
(-0.00312421 2.64953e-05 2.5749e-22)
(-0.00334394 2.64239e-05 0)
(-0.00355155 2.53372e-05 -2.51466e-22)
(-0.0037417 2.34043e-05 0)
(-0.00391001 2.08046e-05 -2.44226e-22)
(-0.00405322 1.77181e-05 -2.40127e-22)
(-0.00416919 1.43195e-05 0)
(-0.00425687 1.07714e-05 0)
(-0.00431621 7.21943e-06 0)
(-0.00434809 3.80234e-06 0)
(-0.00435409 6.67177e-07 0)
(-0.00433641 -2.20696e-06 0)
(-0.00429777 -4.71672e-06 0)
(-0.00424108 -6.82033e-06 -2.00596e-22)
(-0.0041694 -8.51024e-06 1.95586e-22)
(-0.00408583 -9.79555e-06 0)
(-0.00399332 -1.0699e-05 0)
(-0.00389466 -1.1254e-05 0)
(-0.00379238 -1.15008e-05 0)
(-0.00368871 -1.14837e-05 3.46188e-22)
(-0.00358557 -1.12479e-05 0)
(-0.00348455 -1.08376e-05 -3.31084e-22)
(-0.00338695 -1.0294e-05 3.24152e-22)
(-0.00329377 -9.6544e-06 0)
(-0.00320575 -8.95161e-06 0)
(-0.00312339 -8.21355e-06 0)
(-0.00304701 -7.46333e-06 -3.00036e-22)
(-0.00297672 -6.71954e-06 -2.94766e-22)
(-0.00291254 -5.99661e-06 0)
(-0.00285434 -5.30533e-06 -2.8492e-22)
(-0.00280192 -4.65331e-06 -2.80285e-22)
(-0.00275503 -4.04554e-06 2.75807e-22)
(-0.00271333 -3.48487e-06 0)
(-0.00267651 -2.97243e-06 0)
(-0.00264419 -2.50803e-06 2.6307e-22)
(-0.00261601 -2.0905e-06 0)
(-0.0025916 -1.71795e-06 0)
(-0.00257062 -1.38796e-06 0)
(-0.00255271 -1.09781e-06 0)
(-0.00253754 -8.44546e-07 -2.43072e-22)
(-0.0025248 -6.25134e-07 -2.39137e-22)
(-0.00251421 -4.36517e-07 0)
(-0.00250548 -2.75679e-07 -2.31265e-22)
(-0.00249838 -1.39667e-07 0)
(-0.00249267 -2.56217e-08 0)
(-0.00248814 6.92346e-08 -2.1938e-22)
(-0.00248462 1.47452e-07 0)
(-0.00248195 2.11125e-07 -2.11373e-22)
(-0.00248 2.63104e-07 0)
(-0.00247866 3.06888e-07 0)
(-0.00247786 3.46443e-07 -1.99214e-22)
(-0.00247759 3.86177e-07 0)
(-0.00247786 4.30688e-07 -1.91004e-22)
(-0.00247873 4.84022e-07 0)
(-0.00248034 5.47594e-07 0)
(-0.00248281 6.13694e-07 0)
(-0.00248632 6.64639e-07 1.74251e-22)
(-0.00249096 7.71185e-07 0)
(-0.00249661 9.17304e-07 -1.65579e-22)
(-0.00250295 1.01634e-06 0)
(-0.00250927 1.02586e-06 0)
(-0.00251429 9.83026e-07 0)
(-0.00251601 7.70162e-07 0)
(-0.00251168 2.51524e-07 0)
(-0.00249751 -6.00504e-07 0)
(-0.00246746 -2.11941e-06 0)
(-0.00241341 -5.45885e-06 2.52047e-22)
(-0.00233693 -5.90696e-06 0)
(-0.00207082 -4.20119e-05 0)
(4.17877e-05 -0.000346913 -1.62034e-23)
(0.00033012 -0.000841256 2.24151e-23)
(0.000761423 -0.00114066 0)
(0.00126384 -0.00126247 -1.5067e-23)
(0.00175211 -0.00123595 0)
(0.00216035 -0.00109303 -3.94018e-24)
(0.00243795 -0.000863541 6.45688e-24)
(0.00254557 -0.000573365 1.84819e-24)
(0.00245325 -0.000243784 0)
(0.00213908 0.000108706 -9.64692e-24)
(0.0015874 0.000472289 -1.07968e-23)
(0.000787214 0.000838851 0)
(-0.000268759 0.00120381 0)
(-0.0015859 0.00156539 0)
(-0.00316858 0.00192388 0)
(-0.00502086 0.00228092 -3.44675e-23)
(-0.0071469 0.00263883 0)
(-0.00955102 0.00299993 7.96938e-23)
(-0.0122375 0.00336607 0)
(-0.0152101 0.00373814 0)
(-0.0184711 0.00411584 -1.13861e-22)
(-0.022021 0.00449741 0)
(-0.0258567 0.00487966 1.38152e-22)
(-0.0299715 0.00525796 -8.28235e-23)
(-0.0343534 0.00562636 8.89878e-23)
(-0.0389848 0.00597775 -9.49343e-23)
(-0.0438418 0.00630409 -1.00557e-22)
(-0.0488937 0.00659661 0)
(-0.0541028 0.00684611 0)
(-0.0594246 0.00704322 1.14283e-22)
(-0.0648077 0.00717871 -1.0562e-22)
(-0.0701951 0.00724383 0)
(-0.0755241 0.00723067 0)
(-0.0807279 0.00713243 1.20208e-22)
(-0.0857367 0.0069438 0)
(-0.0904792 0.00666121 0)
(-0.0948836 0.00628304 -1.10569e-22)
(-0.0988798 0.00580983 0)
(-0.102401 0.00524432 9.75534e-23)
(-0.105383 0.00459148 -1.70921e-22)
(-0.107769 0.0038584 0)
(-0.10951 0.00305406 0)
(-0.110562 0.00218895 -1.91543e-22)
(-0.110892 0.00127494 -1.23595e-22)
(-0.110474 0.000325497 -4.83219e-23)
(-0.109295 -0.000645284 -3.39637e-24)
(-0.107349 -0.00162331 7.51712e-23)
(-0.104641 -0.00259427 3.36493e-22)
(-0.101183 -0.0035447 -3.10656e-22)
(-0.0969962 -0.00446228 -2.22714e-22)
(-0.0921095 -0.00533607 0)
(-0.0865568 -0.00615663 3.26227e-22)
(-0.080378 -0.0069162 -3.38272e-22)
(-0.0736167 -0.00760867 0)
(-0.0663202 -0.00822955 0)
(-0.058538 -0.00877576 0)
(-0.0503213 -0.00924539 5.65868e-22)
(-0.0417227 -0.00963738 0)
(-0.0327954 -0.0099511 -1.23223e-21)
(-0.0235936 -0.010186 0)
(-0.014173 -0.0103409 -1.33392e-21)
(-0.00459182 -0.0104137 0)
(0.00508822 -0.0104015 1.35835e-21)
(0.0148065 -0.010301 0)
(0.0244924 -0.0101088 -1.26437e-21)
(0.0340711 -0.00982123 5.76045e-22)
(0.0434625 -0.00943421 0)
(0.0525802 -0.00894381 1.02765e-21)
(0.0613308 -0.00834707 4.84484e-22)
(0.0696146 -0.00764282 4.29901e-22)
(0.0773269 -0.00683235 0)
(0.0843594 -0.00592016 2.76359e-22)
(0.0906026 -0.00491453 2.5064e-22)
(0.0959488 -0.003828 0)
(0.100296 -0.00267762 -1.27579e-22)
(0.10355 -0.0014852 1.10155e-22)
(0.105636 -0.000277167 0)
(0.106495 0.000918649 -4.31178e-23)
(0.106092 0.00206883 0)
(0.104427 0.00314061 4.20477e-22)
(0.101533 0.0041031 0)
(0.0974784 0.00492787 -6.26307e-22)
(0.0923687 0.00559109 -2.35506e-22)
(0.0863451 0.00607556 2.4797e-22)
(0.0795803 0.00637242 5.18098e-22)
(0.072271 0.00648219 -5.30569e-22)
(0.0646287 0.00641489 0)
(0.0568683 0.00618929 0)
(0.0491961 0.0058313 0)
(0.0417978 0.0053716 1.63034e-21)
(0.0348298 0.00484281 5.44046e-22)
(0.0284123 0.00427672 -5.2542e-22)
(0.0226268 0.0037018 0)
(0.0175171 0.0031415 -4.44181e-22)
(0.0130933 0.00261353 4.61763e-22)
(0.00933736 0.0021301 4.40701e-22)
(0.00620938 0.00169903 0)
(0.00365314 0.00132512 0)
(0.00160049 0.00101123 0)
(-2.48665e-05 0.000758627 3.69605e-22)
(-0.00130391 0.000566733 0)
(-0.00231805 0.000432363 -6.76539e-22)
(-0.00314448 0.00034939 -9.91392e-22)
(-0.00385153 0.000308978 6.42904e-22)
(-0.0044949 0.000300483 0)
(-0.00511553 0.000312769 3.07314e-22)
(-0.00573937 0.000335529 0)
(-0.00637874 0.000360251 6.05691e-22)
(-0.00703498 0.000380685 -2.97334e-22)
(-0.00770144 0.000392839 -2.94688e-22)
(-0.00836642 0.00039468 0)
(-0.00901572 0.000385693 -8.7646e-22)
(-0.00963459 0.000366438 5.76871e-22)
(-0.0102092 0.000338174 2.86745e-22)
(-0.0107276 0.000302568 0)
(-0.0111801 0.000261483 2.78661e-22)
(-0.0115599 0.000216831 8.20449e-22)
(-0.0118629 0.000170455 0)
(-0.0120877 0.000124055 5.27144e-22)
(-0.0122355 7.91207e-05 5.1675e-22)
(-0.0123094 3.69095e-05 5.05969e-22)
(-0.0123145 -1.55883e-06 0)
(-0.0122572 -3.56884e-05 0)
(-0.012145 -6.50024e-05 0)
(-0.0119857 -8.93017e-05 -2.31016e-22)
(-0.0117876 -0.000108612 -2.24576e-22)
(-0.0115589 -0.000123135 0)
(-0.0113072 -0.000133207 -4.29069e-22)
(-0.0110399 -0.000139261 -4.19085e-22)
(-0.0107634 -0.00014179 0)
(-0.0104836 -0.000141314 -3.99196e-22)
(-0.0102053 -0.000138352 -7.83571e-22)
(-0.00993281 -0.000133406 3.82443e-22)
(-0.00966933 -0.000126938 3.76956e-22)
(-0.00941751 -0.000119366 0)
(-0.00917928 -0.000111058 0)
(-0.00895597 -0.000102326 0)
(-0.0087484 -9.34296e-05 3.4803e-22)
(-0.00855695 -8.45803e-05 -3.43672e-22)
(-0.00838165 -7.59434e-05 -6.74564e-22)
(-0.00822222 -6.76446e-05 3.3127e-22)
(-0.00807818 -5.97747e-05 -3.27193e-22)
(-0.00794885 -5.23958e-05 -3.21153e-22)
(-0.00783346 -4.55457e-05 0)
(-0.00773112 -3.92431e-05 0)
(-0.00764092 -3.34912e-05 3.076e-22)
(-0.0075619 -2.82817e-05 0)
(-0.00749313 -2.35973e-05 0)
(-0.00743366 -1.94144e-05 -5.87311e-22)
(-0.00738259 -1.5705e-05 0)
(-0.00733904 -1.24382e-05 -2.84859e-22)
(-0.0073022 -9.58143e-06 2.80181e-22)
(-0.00727127 -7.1012e-06 0)
(-0.00724554 -4.96406e-06 -2.71431e-22)
(-0.00722434 -3.1368e-06 0)
(-0.00720705 -1.58673e-06 0)
(-0.00719312 -2.81579e-07 2.5786e-22)
(-0.00718204 8.10715e-07 -5.06667e-22)
(-0.0071734 1.72242e-06 2.48762e-22)
(-0.00716681 2.48829e-06 0)
(-0.007162 3.14672e-06 0)
(-0.00715876 3.74045e-06 -2.34856e-22)
(-0.007157 4.31682e-06 0)
(-0.00715672 4.92571e-06 -2.25438e-22)
(-0.00715807 5.61393e-06 0)
(-0.00716127 6.41381e-06 0)
(-0.00716661 7.32298e-06 0)
(-0.00717432 8.28477e-06 -2.06236e-22)
(-0.0071844 9.2652e-06 0)
(-0.00719648 1.00465e-05 1.96218e-22)
(-0.00720941 1.02716e-05 0)
(-0.0072209 9.49887e-06 0)
(-0.00722729 7.20454e-06 -3.60519e-22)
(-0.00722313 2.65475e-06 3.49281e-22)
(-0.00720082 -5.04961e-06 0)
(-0.00715017 -1.69749e-05 0)
(-0.00705639 -3.51732e-05 0)
(-0.00690149 -6.34414e-05 -9.02835e-22)
(-0.00667931 -0.00010975 0)
(-0.00614843 -0.00022065 5.49442e-22)
(3.98202e-05 -0.000718615 -6.18456e-24)
(0.000294261 -0.00164078 -3.90457e-23)
(0.000629102 -0.00211764 0)
(0.00096032 -0.00221917 3.65253e-23)
(0.0011959 -0.00201412 0)
(0.00126507 -0.00156687 0)
(0.00111249 -0.000935128 5.94583e-24)
(0.000693581 -0.00016868 -1.85358e-24)
(-2.74114e-05 0.000691308 -2.84466e-24)
(-0.00107871 0.00161215 9.64883e-24)
(-0.00248247 0.00256902 0)
(-0.00425586 0.00354451 0)
(-0.00641224 0.00452744 -2.30934e-23)
(-0.0089621 0.00551172 -6.16143e-23)
(-0.0119138 0.00649501 7.79983e-23)
(-0.015274 0.00747734 0)
(-0.0190475 0.00845974 1.13682e-22)
(-0.0232374 0.00944288 -7.75242e-23)
(-0.0278438 0.010426 0)
(-0.0328638 0.011406 1.7452e-22)
(-0.0382897 0.012377 1.09579e-22)
(-0.0441084 0.0133297 -2.19482e-22)
(-0.0503 0.0142517 -1.31958e-22)
(-0.056837 0.0151278 0)
(-0.0636834 0.0159401 2.9089e-22)
(-0.0707943 0.0166689 3.14797e-22)
(-0.0781159 0.0172932 0)
(-0.0855853 0.0177916 3.60706e-22)
(-0.0931315 0.0181432 0)
(-0.100676 0.018328 4.011e-22)
(-0.108135 0.0183285 2.07669e-22)
(-0.115419 0.0181295 0)
(-0.122436 0.0177195 0)
(-0.129095 0.0170912 0)
(-0.135304 0.0162413 0)
(-0.140975 0.0151717 0)
(-0.146024 0.0138889 0)
(-0.150375 0.012404 4.18283e-22)
(-0.153959 0.0107326 -5.74176e-22)
(-0.156717 0.00889447 0)
(-0.158598 0.00691261 0)
(-0.159563 0.00481275 0)
(-0.159585 0.00262267 -4.57232e-23)
(-0.158645 0.000372006 1.15878e-22)
(-0.15674 -0.00190848 1.3881e-22)
(-0.153874 -0.00418837 1.41417e-23)
(-0.150062 -0.00643856 6.46938e-23)
(-0.145327 -0.00863235 -2.01373e-22)
(-0.1397 -0.0107454 4.95816e-23)
(-0.13322 -0.0127563 -3.38135e-22)
(-0.125929 -0.0146466 0)
(-0.117877 -0.0164014 -5.33216e-22)
(-0.109116 -0.0180089 4.95835e-23)
(-0.0997025 -0.019461 0)
(-0.089692 -0.0207521 0)
(-0.0791427 -0.0218796 9.10625e-22)
(-0.0681127 -0.0228425 0)
(-0.0566599 -0.0236413 0)
(-0.0448418 -0.0242768 -1.08782e-21)
(-0.032716 -0.0247497 -2.39714e-21)
(-0.0203405 -0.0250595 1.29977e-21)
(-0.00777524 -0.0252039 0)
(0.00491573 -0.0251788 -1.33322e-21)
(0.0176731 -0.0249772 0)
(0.0304243 -0.0245902 -1.12825e-21)
(0.043091 -0.0240077 -1.16258e-21)
(0.0555887 -0.0232188 2.06336e-21)
(0.0678247 -0.0222126 8.93013e-22)
(0.0796971 -0.020979 0)
(0.0910948 -0.0195108 -1.47809e-21)
(0.101898 -0.0178046 0)
(0.111979 -0.0158624 -1.59135e-21)
(0.121203 -0.0136929 -7.99291e-22)
(0.129432 -0.0113131 -5.68625e-22)
(0.136529 -0.00874864 3.4197e-22)
(0.142355 -0.00603499 -2.27318e-22)
(0.146784 -0.00321749 0)
(0.149702 -0.000353171 0)
(0.151009 0.00249192 -4.51035e-22)
(0.150638 0.00524491 -8.6908e-22)
(0.148558 0.00782963 0)
(0.144784 0.0101704 3.91309e-22)
(0.139376 0.0121956 0)
(0.132451 0.0138424 -1.44715e-21)
(0.124179 0.0150628 2.10105e-23)
(0.114781 0.0158281 -9.87812e-24)
(0.104526 0.0161327 1.04003e-21)
(0.0937093 0.0159955 0)
(0.0826444 0.0154591 -1.01525e-21)
(0.0716384 0.0145858 -2.61202e-23)
(0.0609744 0.0134516 0)
(0.0508942 0.0121387 0)
(0.0415865 0.010728 0)
(0.033181 0.00929225 9.00045e-22)
(0.025749 0.00789203 0)
(0.0193083 0.00657411 0)