/*--------------------------------*- C++ -*----------------------------------*\
  =========                 |
  \\      /  F ield         | OpenFOAM: The Open Source CFD Toolbox
   \\    /   O peration     | Website:  https://openfoam.org
    \\  /    A nd           | Version:  8
     \\/     M anipulation  |
\*---------------------------------------------------------------------------*/
FoamFile
{
    version     2.0;
    format      ascii;
    class       volScalarField;
    location    "0.08";
    object      p;
}
// * * * * * * * * * * * * * * * * * * * * * * * * * * * * * * * * * * * * * //

dimensions      [0 2 -2 0 0 0 0];

internalField   nonuniform List<scalar> 
12225
(
2.34193
2.07849
2.04574
2.02785
2.00428
1.9826
1.96216
1.94221
1.92249
1.90279
1.88287
1.86243
1.84112
1.81845
1.79362
1.76509
1.73023
1.67438
2.30095
2.08401
2.04798
2.02906
2.00494
1.98295
1.96236
1.94228
1.92246
1.90266
1.88263
1.86207
1.84062
1.81774
1.79263
1.76381
1.72867
1.67902
2.26139
2.09147
2.05076
2.03043
2.0058
1.98343
1.96265
1.94243
1.9225
1.90261
1.88249
1.86183
1.84028
1.81731
1.79215
1.76352
1.72969
1.68799
2.2309
2.099
2.05351
2.03164
2.00679
1.98403
1.96306
1.94273
1.92271
1.90276
1.88261
1.86196
1.84046
1.81764
1.79289
1.76533
1.73431
1.70002
2.20661
2.10486
2.05633
2.03282
2.008
1.98488
1.96369
1.94326
1.92319
1.90323
1.88312
1.86258
1.84131
1.81893
1.79503
1.7692
1.74161
1.71366
2.18645
2.1083
2.05911
2.03409
2.00946
1.98605
1.96463
1.94412
1.92403
1.90411
1.88412
1.86381
1.84294
1.82126
1.79856
1.77482
1.75071
1.72795
2.1697
2.10945
2.06161
2.03542
2.01112
1.98759
1.96595
1.94538
1.92531
1.90549
1.8857
1.86575
1.84545
1.82468
1.80342
1.7819
1.761
1.74232
2.15597
2.1088
2.06361
2.03675
2.01289
1.98945
1.96768
1.94709
1.9271
1.90744
1.88794
1.86846
1.84887
1.82916
1.80944
1.7901
1.772
1.75643
2.14481
2.10691
2.06501
2.03801
2.01467
1.99154
1.96977
1.94923
1.92939
1.90998
1.89086
1.87194
1.85317
1.83459
1.81642
1.79907
1.7833
1.77006
2.1358
2.10431
2.06581
2.03913
2.01637
1.99373
1.97212
1.95175
1.93215
1.91307
1.89441
1.87612
1.85822
1.8408
1.82409
1.80849
1.7946
1.78306
2.12856
2.10142
2.06609
2.0401
2.01797
1.99593
1.97465
1.95455
1.93528
1.91661
1.89848
1.88089
1.86388
1.84757
1.83219
1.81807
1.80565
1.79535
2.12326
2.09879
2.066
2.04086
2.01934
1.99793
1.97707
1.9573
1.9384
1.92017
1.90258
1.88565
1.86945
1.85409
1.83978
1.82679
1.81543
1.80595
2.11897
2.0964
2.0658
2.04149
2.0206
1.99985
1.97948
1.96009
1.94162
1.92389
1.90686
1.89059
1.87516
1.86067
1.8473
1.83525
1.82472
1.81586
2.11512
2.0941
2.06552
2.04212
2.02196
2.00199
1.98223
1.96334
1.9454
1.92826
1.91189
1.89637
1.88176
1.86816
1.8557
1.84451
1.83471
1.82636
2.11197
2.09216
2.06527
2.04285
2.0235
2.00438
1.98534
1.96705
1.94973
1.93328
1.91766
1.90292
1.88916
1.87643
1.86481
1.85438
1.84518
1.83723
2.10981
2.09088
2.06533
2.04384
2.02532
2.00709
1.98883
1.97123
1.95461
1.9389
1.92406
1.91013
1.89718
1.88526
1.87439
1.8646
1.85588
1.84822
2.10899
2.09066
2.06607
2.04537
2.02763
2.01022
1.99275
1.97587
1.95997
1.94502
1.93095
1.9178
1.9056
1.89438
1.88414
1.87486
1.86652
1.85907
2.10997
2.09201
2.06798
2.04781
2.03066
2.01393
1.99714
1.98094
1.96572
1.95146
1.9381
1.92564
1.91409
1.90346
1.89373
1.88485
1.87678
1.86947
2.1135
2.09563
2.07169
2.05162
2.0347
2.01835
2.00203
1.98634
1.97167
1.958
1.94523
1.93333
1.9223
1.91213
1.90277
1.89418
1.88629
1.87906
2.11952
2.1012
2.07651
2.0559
2.0387
2.02226
2.00599
1.9905
1.97613
1.96281
1.95039
1.93885
1.92815
1.91827
1.90914
1.90071
1.89292
1.88573
2.12631
2.1072
2.0811
2.05947
2.04173
2.02497
2.00856
1.9931
1.97888
1.96574
1.95353
1.94219
1.9317
1.92198
1.91298
1.90464
1.8969
1.88972
2.13456
2.11395
2.08545
2.06236
2.044
2.02684
2.01019
1.99471
1.98058
1.96757
1.95551
1.94433
1.93397
1.92437
1.91546
1.90718
1.89948
1.89231
2.14467
2.12124
2.08903
2.06435
2.04549
2.02787
2.01095
1.99547
1.98144
1.96854
1.9566
1.94555
1.9353
1.9258
1.91696
1.90873
1.90106
1.8939
2.15729
2.12861
2.09127
2.06535
2.04618
2.02807
2.01095
1.99555
1.98164
1.96886
1.95705
1.94611
1.93598
1.92656
1.91779
1.9096
1.90195
1.89481
2.17333
2.13521
2.09169
2.06543
2.04611
2.02752
2.01039
1.99518
1.98143
1.96879
1.95711
1.94629
1.93625
1.9269
1.91818
1.91004
1.90241
1.89528
2.19376
2.13959
2.09008
2.06481
2.04536
2.02647
2.00956
1.99463
1.98106
1.96855
1.95699
1.94627
1.93631
1.92701
1.91833
1.91021
1.9026
1.89548
2.21969
2.1398
2.08666
2.06374
2.04417
2.02528
2.00876
1.99408
1.98066
1.96828
1.95681
1.94616
1.93624
1.92698
1.91833
1.91022
1.90262
1.8955
2.25413
2.13519
2.08212
2.0623
2.04275
2.02419
2.00806
1.99358
1.98028
1.96799
1.95659
1.94598
1.9361
1.92686
1.91822
1.91012
1.90253
1.89541
2.30159
2.12845
2.07741
2.06038
2.04127
2.02323
2.00741
1.99309
1.97989
1.96767
1.95632
1.94575
1.93589
1.92667
1.91804
1.90996
1.90237
1.89525
2.35174
2.1235
2.07388
2.05862
2.04009
2.0225
2.00688
1.99267
1.97955
1.96739
1.95608
1.94554
1.9357
1.92649
1.91787
1.90979
1.90221
1.89509
1.74128
1.74131
1.74139
1.7415
1.74163
1.74176
1.74189
1.74199
1.74207
1.74212
1.74212
1.74208
1.74197
1.74181
1.74158
1.74128
1.74089
1.74042
1.73986
1.73921
1.73846
1.7376
1.73664
1.73557
1.73439
1.73309
1.73168
1.73015
1.7285
1.72673
1.72484
1.72284
1.72072
1.71848
1.71612
1.71365
1.71107
1.70839
1.70559
1.70269
1.69969
1.69659
1.69339
1.69009
1.68671
1.68324
1.67968
1.67603
1.67231
1.6685
1.66462
1.66066
1.65664
1.65253
1.64837
1.64413
1.63983
1.63546
1.63103
1.62654
1.62199
1.61738
1.61272
1.60799
1.60321
1.59838
1.59349
1.58855
1.58356
1.57851
1.57341
1.56826
1.56306
1.55781
1.55251
1.54717
1.54177
1.53632
1.53082
1.52527
1.51968
1.51404
1.50834
1.5026
1.49681
1.49097
1.48508
1.47915
1.47316
1.46712
1.46104
1.4549
1.44872
1.44248
1.4362
1.42986
1.42348
1.41704
1.41055
1.40401
1.39742
1.39078
1.38408
1.37733
1.37053
1.36368
1.35677
1.34981
1.34279
1.33572
1.32859
1.32141
1.31417
1.30688
1.29952
1.29212
1.28465
1.27712
1.26954
1.2619
1.25419
1.24643
1.23861
1.23072
1.22278
1.21477
1.2067
1.19857
1.19037
1.18211
1.17379
1.1654
1.15695
1.14843
1.13984
1.13119
1.12247
1.11368
1.10483
1.0959
1.08691
1.07784
1.06871
1.0595
1.05023
1.04088
1.03146
1.02196
1.01239
1.00275
0.993032
0.983239
0.97337
0.963425
0.953403
0.943303
0.933126
0.92287
0.912535
0.90212
0.891627
0.881053
0.8704
0.859666
0.848853
0.83796
0.826989
0.81594
0.804815
0.793618
0.78235
0.771018
0.759627
0.74819
0.736718
0.725235
0.713772
0.702376
0.691208
0.67997
1.74102
1.74108
1.74117
1.74128
1.74139
1.74151
1.74161
1.74171
1.74177
1.74181
1.74181
1.74176
1.74165
1.74149
1.74126
1.74096
1.74058
1.74011
1.73956
1.73891
1.73816
1.73732
1.73636
1.7353
1.73412
1.73283
1.73142
1.7299
1.72826
1.72649
1.72461
1.72261
1.7205
1.71826
1.71591
1.71345
1.71088
1.7082
1.70541
1.70251
1.69952
1.69642
1.69323
1.68994
1.68657
1.6831
1.67954
1.67591
1.67219
1.66839
1.66451
1.66056
1.65654
1.65244
1.64827
1.64404
1.63975
1.63538
1.63096
1.62647
1.62193
1.61732
1.61266
1.60794
1.60316
1.59833
1.59344
1.58851
1.58351
1.57847
1.57338
1.56823
1.56303
1.55778
1.55249
1.54714
1.54174
1.53629
1.5308
1.52525
1.51966
1.51402
1.50832
1.50258
1.49679
1.49096
1.48507
1.47913
1.47315
1.46711
1.46103
1.45489
1.44871
1.44247
1.43619
1.42986
1.42347
1.41703
1.41055
1.40401
1.39741
1.39077
1.38408
1.37733
1.37053
1.36367
1.35677
1.3498
1.34279
1.33572
1.32859
1.32141
1.31417
1.30687
1.29952
1.29211
1.28465
1.27712
1.26954
1.26189
1.25419
1.24643
1.2386
1.23072
1.22278
1.21477
1.2067
1.19857
1.19037
1.18211
1.17379
1.1654
1.15695
1.14843
1.13984
1.13119
1.12247
1.11368
1.10482
1.0959
1.0869
1.07784
1.06871
1.0595
1.05022
1.04088
1.03145
1.02196
1.01239
1.00275
0.99303
0.983238
0.973369
0.963424
0.953401
0.943302
0.933124
0.922868
0.912533
0.902119
0.891625
0.881052
0.870398
0.859665
0.848852
0.837959
0.826988
0.815939
0.804815
0.793618
0.78235
0.771019
0.759629
0.748192
0.736723
0.725241
0.713781
0.702383
0.691198
0.679907
1.74069
1.74078
1.74089
1.74101
1.74113
1.74125
1.74136
1.74145
1.74153
1.74157
1.74157
1.74153
1.74144
1.74129
1.74107
1.74078
1.74042
1.73997
1.73942
1.73879
1.73805
1.73721
1.73627
1.73521
1.73404
1.73276
1.73135
1.72983
1.72819
1.72643
1.72455
1.72255
1.72044
1.7182
1.71585
1.71339
1.71082
1.70813
1.70534
1.70245
1.69945
1.69636
1.69316
1.68988
1.6865
1.68303
1.67948
1.67584
1.67212
1.66832
1.66445
1.6605
1.65647
1.65238
1.64822
1.64399
1.63969
1.63533
1.63091
1.62642
1.62188
1.61727
1.61261
1.60789
1.60312
1.59829
1.59341
1.58847
1.58348
1.57844
1.57334
1.5682
1.563
1.55776
1.55246
1.54711
1.54172
1.53627
1.53078
1.52523
1.51964
1.514
1.50831
1.50257
1.49678
1.49094
1.48506
1.47912
1.47314
1.4671
1.46102
1.45488
1.4487
1.44247
1.43618
1.42985
1.42346
1.41703
1.41054
1.404
1.39741
1.39077
1.38407
1.37732
1.37052
1.36367
1.35676
1.3498
1.34278
1.33571
1.32859
1.3214
1.31417
1.30687
1.29952
1.29211
1.28464
1.27712
1.26953
1.26189
1.25419
1.24643
1.2386
1.23072
1.22277
1.21477
1.2067
1.19856
1.19037
1.18211
1.17379
1.1654
1.15694
1.14842
1.13984
1.13119
1.12247
1.11368
1.10482
1.0959
1.0869
1.07784
1.06871
1.0595
1.05022
1.04087
1.03145
1.02196
1.01239
1.00275
0.993029
0.983236
0.973367
0.963422
0.9534
0.9433
0.933123
0.922867
0.912532
0.902117
0.891624
0.88105
0.870397
0.859663
0.84885
0.837957
0.826985
0.815937
0.804812
0.793614
0.782346
0.771013
0.759622
0.748183
0.73671
0.725222
0.713752
0.70233
0.691088
0.679666
1.74034
1.74045
1.74058
1.74071
1.74085
1.74098
1.74111
1.74123
1.74132
1.74138
1.74141
1.74139
1.74133
1.7412
1.74101
1.74074
1.7404
1.73997
1.73945
1.73883
1.73811
1.73729
1.73636
1.73531
1.73415
1.73287
1.73147
1.72995
1.72831
1.72654
1.72466
1.72266
1.72053
1.71829
1.71594
1.71347
1.71089
1.7082
1.7054
1.7025
1.69949
1.69639
1.69319
1.6899
1.68651
1.68304
1.67948
1.67584
1.67212
1.66832
1.66444
1.66048
1.65646
1.65236
1.6482
1.64397
1.63967
1.63531
1.63088
1.6264
1.62185
1.61725
1.61259
1.60787
1.6031
1.59827
1.59338
1.58845
1.58346
1.57842
1.57332
1.56818
1.56298
1.55774
1.55244
1.54709
1.5417
1.53625
1.53076
1.52522
1.51962
1.51398
1.50829
1.50255
1.49677
1.49093
1.48504
1.47911
1.47312
1.46709
1.46101
1.45487
1.44869
1.44246
1.43617
1.42984
1.42345
1.41702
1.41053
1.40399
1.3974
1.39076
1.38407
1.37732
1.37052
1.36366
1.35676
1.3498
1.34278
1.33571
1.32858
1.3214
1.31416
1.30687
1.29952
1.29211
1.28464
1.27712
1.26953
1.26189
1.25419
1.24642
1.2386
1.23072
1.22277
1.21476
1.2067
1.19856
1.19037
1.18211
1.17378
1.1654
1.15694
1.14842
1.13984
1.13118
1.12246
1.11368
1.10482
1.0959
1.0869
1.07784
1.0687
1.0595
1.05022
1.04087
1.03145
1.02196
1.01239
1.00275
0.993028
0.983235
0.973366
0.963421
0.953399
0.943299
0.933121
0.922865
0.91253
0.902116
0.891622
0.881048
0.870394
0.85966
0.848846
0.837953
0.82698
0.81593
0.804804
0.793604
0.782333
0.770997
0.759601
0.748155
0.736671
0.725167
0.71367
0.702198
0.69085
0.679286
1.73997
1.74008
1.74022
1.74037
1.74053
1.74068
1.74083
1.74097
1.7411
1.74119
1.74125
1.74127
1.74124
1.74115
1.74099
1.74076
1.74046
1.74006
1.73957
1.73898
1.73828
1.73748
1.73656
1.73553
1.73438
1.73311
1.73171
1.73019
1.72855
1.72678
1.72489
1.72288
1.72075
1.7185
1.71613
1.71365
1.71106
1.70835
1.70554
1.70263
1.69961
1.6965
1.69329
1.68998
1.68659
1.68311
1.67954
1.67589
1.67216
1.66835
1.66447
1.66051
1.65648
1.65238
1.64821
1.64397
1.63967
1.63531
1.63088
1.62639
1.62184
1.61724
1.61258
1.60786
1.60308
1.59825
1.59337
1.58843
1.58344
1.5784
1.57331
1.56816
1.56297
1.55772
1.55243
1.54708
1.54168
1.53624
1.53075
1.5252
1.51961
1.51397
1.50828
1.50254
1.49676
1.49092
1.48503
1.4791
1.47312
1.46708
1.461
1.45487
1.44868
1.44245
1.43617
1.42983
1.42345
1.41701
1.41053
1.40399
1.3974
1.39076
1.38406
1.37731
1.37051
1.36366
1.35675
1.34979
1.34278
1.33571
1.32858
1.3214
1.31416
1.30687
1.29951
1.2921
1.28464
1.27711
1.26953
1.26189
1.25418
1.24642
1.2386
1.23072
1.22277
1.21476
1.20669
1.19856
1.19037
1.18211
1.17378
1.16539
1.15694
1.14842
1.13984
1.13118
1.12246
1.11368
1.10482
1.0959
1.0869
1.07784
1.0687
1.0595
1.05022
1.04087
1.03145
1.02196
1.01239
1.00274
0.993027
0.983234
0.973365
0.96342
0.953397
0.943297
0.93312
0.922863
0.912528
0.902113
0.891619
0.881045
0.87039
0.859656
0.848841
0.837946
0.826973
0.815921
0.804792
0.793589
0.782314
0.770971
0.759568
0.74811
0.73661
0.72508
0.713542
0.702004
0.69053
0.678832
1.73955
1.73966
1.73981
1.73997
1.74014
1.74032
1.7405
1.74067
1.74083
1.74097
1.74108
1.74114
1.74116
1.74112
1.74101
1.74083
1.74057
1.74022
1.73977
1.73922
1.73855
1.73778
1.73688
1.73587
1.73473
1.73347
1.73208
1.73056
1.72891
1.72714
1.72524
1.72322
1.72108
1.71881
1.71643
1.71393
1.71132
1.7086
1.70577
1.70284
1.69981
1.69668
1.69345
1.69014
1.68673
1.68323
1.67965
1.67599
1.67225
1.66843
1.66454
1.66057
1.65653
1.65242
1.64825
1.644
1.6397
1.63533
1.6309
1.62641
1.62186
1.61725
1.61258
1.60786
1.60308
1.59825
1.59337
1.58843
1.58344
1.57839
1.5733
1.56815
1.56296
1.55771
1.55242
1.54707
1.54167
1.53623
1.53074
1.52519
1.5196
1.51396
1.50827
1.50253
1.49675
1.49091
1.48502
1.47909
1.47311
1.46707
1.46099
1.45486
1.44868
1.44244
1.43616
1.42983
1.42344
1.41701
1.41052
1.40398
1.39739
1.39075
1.38406
1.37731
1.37051
1.36366
1.35675
1.34979
1.34277
1.3357
1.32858
1.32139
1.31416
1.30686
1.29951
1.2921
1.28464
1.27711
1.26953
1.26189
1.25418
1.24642
1.2386
1.23071
1.22277
1.21476
1.20669
1.19856
1.19037
1.18211
1.17378
1.16539
1.15694
1.14842
1.13984
1.13118
1.12246
1.11368
1.10482
1.09589
1.0869
1.07784
1.0687
1.0595
1.05022
1.04087
1.03145
1.02195
1.01239
1.00274
0.993026
0.983233
0.973364
0.963418
0.953396
0.943296
0.933118
0.922861
0.912526
0.902111
0.891616
0.881041
0.870386
0.859651
0.848835
0.837939
0.826963
0.815908
0.804776
0.793569
0.782288
0.770938
0.759523
0.748051
0.736529
0.724968
0.713382
0.70177
0.690168
0.678346
1.73904
1.73915
1.73929
1.73947
1.73966
1.73986
1.74008
1.7403
1.7405
1.74069
1.74086
1.74099
1.74107
1.74109
1.74105
1.74094
1.74074
1.74044
1.74004
1.73954
1.73892
1.73818
1.73731
1.73632
1.7352
1.73395
1.73256
1.73104
1.72939
1.72762
1.72571
1.72367
1.72151
1.71923
1.71683
1.71431
1.71168
1.70894
1.70609
1.70314
1.70009
1.69694
1.69369
1.69035
1.68693
1.68342
1.67982
1.67614
1.67239
1.66856
1.66465
1.66067
1.65662
1.6525
1.64832
1.64407
1.63975
1.63538
1.63094
1.62644
1.62189
1.61727
1.6126
1.60788
1.6031
1.59826
1.59338
1.58843
1.58344
1.5784
1.5733
1.56815
1.56296
1.55771
1.55241
1.54707
1.54167
1.53622
1.53073
1.52519
1.51959
1.51395
1.50826
1.50253
1.49674
1.4909
1.48502
1.47908
1.4731
1.46707
1.46098
1.45485
1.44867
1.44244
1.43615
1.42982
1.42344
1.417
1.41051
1.40398
1.39739
1.39075
1.38405
1.37731
1.37051
1.36365
1.35675
1.34979
1.34277
1.3357
1.32857
1.32139
1.31415
1.30686
1.29951
1.2921
1.28463
1.27711
1.26953
1.26188
1.25418
1.24642
1.2386
1.23071
1.22277
1.21476
1.20669
1.19856
1.19036
1.1821
1.17378
1.16539
1.15694
1.14842
1.13983
1.13118
1.12246
1.11367
1.10482
1.09589
1.0869
1.07784
1.0687
1.0595
1.05022
1.04087
1.03145
1.02195
1.01239
1.00274
0.993025
0.983232
0.973363
0.963417
0.953395
0.943294
0.933116
0.922859
0.912523
0.902108
0.891613
0.881037
0.870381
0.859644
0.848827
0.837929
0.826951
0.815894
0.804758
0.793545
0.782257
0.770898
0.75947
0.74798
0.736434
0.724838
0.7132
0.701512
0.689791
0.677855
1.73841
1.7385
1.73865
1.73883
1.73905
1.73929
1.73954
1.73981
1.74008
1.74034
1.74058
1.74079
1.74095
1.74106
1.7411
1.74107
1.74094
1.74072
1.74039
1.73994
1.73937
1.73868
1.73785
1.73689
1.73578
1.73454
1.73317
1.73165
1.73
1.72821
1.72629
1.72423
1.72206
1.71975
1.71733
1.71479
1.71213
1.70937
1.70649
1.70352
1.70044
1.69726
1.694
1.69064
1.68719
1.68366
1.68004
1.67635
1.67257
1.66873
1.6648
1.66081
1.65675
1.65262
1.64842
1.64416
1.63984
1.63545
1.63101
1.6265
1.62194
1.61732
1.61265
1.60792
1.60313
1.59829
1.5934
1.58845
1.58346
1.57841
1.57331
1.56816
1.56296
1.55771
1.55242
1.54707
1.54167
1.53622
1.53073
1.52519
1.51959
1.51395
1.50826
1.50252
1.49673
1.4909
1.48501
1.47908
1.47309
1.46706
1.46098
1.45485
1.44866
1.44243
1.43615
1.42982
1.42343
1.417
1.41051
1.40397
1.39738
1.39074
1.38405
1.3773
1.3705
1.36365
1.35674
1.34978
1.34277
1.3357
1.32857
1.32139
1.31415
1.30686
1.29951
1.2921
1.28463
1.27711
1.26952
1.26188
1.25418
1.24642
1.2386
1.23071
1.22277
1.21476
1.20669
1.19856
1.19036
1.1821
1.17378
1.16539
1.15694
1.14842
1.13983
1.13118
1.12246
1.11367
1.10482
1.09589
1.0869
1.07783
1.0687
1.0595
1.05022
1.04087
1.03145
1.02195
1.01238
1.00274
0.993024
0.983231
0.973362
0.963416
0.953393
0.943293
0.933114
0.922857
0.912521
0.902105
0.891609
0.881033
0.870376
0.859638
0.848819
0.837918
0.826938
0.815877
0.804736
0.793517
0.782222
0.770852
0.75941
0.747901
0.736328
0.724694
0.713003
0.701242
0.689412
0.677374
1.7376
1.73769
1.73783
1.73802
1.73826
1.73854
1.73886
1.73919
1.73954
1.73988
1.74022
1.74052
1.74079
1.74101
1.74115
1.74122
1.74119
1.74106
1.74081
1.74043
1.73993
1.73928
1.7385
1.73757
1.73649
1.73527
1.73389
1.73238
1.73072
1.72892
1.72698
1.72491
1.72271
1.72038
1.71793
1.71536
1.71267
1.70988
1.70698
1.70397
1.70087
1.69766
1.69437
1.69098
1.68751
1.68396
1.68032
1.6766
1.67281
1.66894
1.665
1.66099
1.65692
1.65277
1.64856
1.64429
1.63995
1.63556
1.6311
1.62659
1.62202
1.61739
1.61271
1.60797
1.60318
1.59833
1.59344
1.58849
1.58349
1.57844
1.57333
1.56818
1.56298
1.55773
1.55243
1.54708
1.54168
1.53623
1.53073
1.52519
1.5196
1.51395
1.50826
1.50252
1.49673
1.4909
1.48501
1.47908
1.47309
1.46706
1.46098
1.45484
1.44866
1.44243
1.43614
1.42981
1.42343
1.41699
1.41051
1.40397
1.39738
1.39074
1.38405
1.3773
1.3705
1.36365
1.35674
1.34978
1.34276
1.33569
1.32857
1.32139
1.31415
1.30686
1.29951
1.2921
1.28463
1.27711
1.26952
1.26188
1.25418
1.24642
1.23859
1.23071
1.22277
1.21476
1.20669
1.19856
1.19036
1.1821
1.17378
1.16539
1.15694
1.14842
1.13983
1.13118
1.12246
1.11367
1.10482
1.09589
1.0869
1.07783
1.0687
1.05949
1.05022
1.04087
1.03145
1.02195
1.01238
1.00274
0.993023
0.98323
0.97336
0.963415
0.953392
0.943291
0.933112
0.922855
0.912518
0.902102
0.891605
0.881028
0.870369
0.85963
0.848809
0.837907
0.826923
0.815858
0.804712
0.793487
0.782183
0.770801
0.759345
0.747815
0.736214
0.724543
0.712799
0.700969
0.689042
0.676911
1.73656
1.73663
1.73677
1.73698
1.73725
1.73758
1.73796
1.73838
1.73882
1.73928
1.73973
1.74016
1.74056
1.74091
1.74119
1.74138
1.74147
1.74145
1.7413
1.74101
1.74058
1.74
1.73926
1.73837
1.73732
1.73611
1.73474
1.73323
1.73156
1.72974
1.72779
1.72569
1.72346
1.72111
1.71862
1.71602
1.7133
1.71048
1.70754
1.7045
1.70137
1.69813
1.69481
1.69139
1.68789
1.68431
1.68065
1.67691
1.67309
1.6692
1.66524
1.66122
1.65712
1.65296
1.64873
1.64445
1.6401
1.63569
1.63122
1.6267
1.62212
1.61748
1.61279
1.60804
1.60324
1.59839
1.59349
1.58854
1.58353
1.57847
1.57337
1.56821
1.56301
1.55775
1.55245
1.5471
1.54169
1.53624
1.53074
1.5252
1.5196
1.51396
1.50827
1.50253
1.49674
1.4909
1.48501
1.47908
1.47309
1.46706
1.46097
1.45484
1.44866
1.44243
1.43614
1.42981
1.42342
1.41699
1.4105
1.40397
1.39738
1.39074
1.38404
1.3773
1.3705
1.36364
1.35674
1.34978
1.34276
1.33569
1.32857
1.32139
1.31415
1.30685
1.2995
1.2921
1.28463
1.2771
1.26952
1.26188
1.25418
1.24642
1.23859
1.23071
1.22276
1.21476
1.20669
1.19856
1.19036
1.1821
1.17378
1.16539
1.15694
1.14842
1.13983
1.13118
1.12246
1.11367
1.10482
1.09589
1.0869
1.07783
1.0687
1.05949
1.05022
1.04087
1.03145
1.02195
1.01238
1.00274
0.993022
0.983228
0.973359
0.963413
0.95339
0.943289
0.93311
0.922852
0.912515
0.902098
0.8916
0.881022
0.870363
0.859622
0.848799
0.837894
0.826907
0.815838
0.804687
0.793454
0.782141
0.770748
0.759275
0.747725
0.736096
0.724387
0.712593
0.700699
0.688686
0.676471
1.73521
1.73526
1.73539
1.73561
1.73593
1.73632
1.73679
1.73731
1.73787
1.73847
1.73907
1.73967
1.74023
1.74075
1.74119
1.74154
1.74177
1.74189
1.74185
1.74167
1.74133
1.74082
1.74014
1.73929
1.73827
1.73708
1.73572
1.7342
1.73252
1.73068
1.7287
1.72658
1.72432
1.72193
1.71941
1.71677
1.71402
1.71115
1.70818
1.7051
1.70193
1.69866
1.69531
1.69186
1.68833
1.68472
1.68103
1.67726
1.67342
1.66951
1.66552
1.66147
1.65736
1.65318
1.64894
1.64463
1.64027
1.63584
1.63136
1.62683
1.62224
1.61759
1.61289
1.60813
1.60333
1.59847
1.59356
1.5886
1.58358
1.57852
1.57341
1.56825
1.56304
1.55778
1.55248
1.54712
1.54171
1.53626
1.53076
1.52521
1.51961
1.51397
1.50828
1.50253
1.49674
1.4909
1.48502
1.47908
1.47309
1.46706
1.46097
1.45484
1.44866
1.44242
1.43614
1.42981
1.42342
1.41699
1.4105
1.40396
1.39738
1.39073
1.38404
1.37729
1.3705
1.36364
1.35674
1.34978
1.34276
1.33569
1.32857
1.32138
1.31415
1.30685
1.2995
1.29209
1.28463
1.2771
1.26952
1.26188
1.25418
1.24641
1.23859
1.23071
1.22276
1.21476
1.20669
1.19856
1.19036
1.1821
1.17378
1.16539
1.15694
1.14842
1.13983
1.13118
1.12246
1.11367
1.10482
1.09589
1.0869
1.07783
1.0687
1.05949
1.05022
1.04087
1.03145
1.02195
1.01238
1.00274
0.993021
0.983227
0.973358
0.963412
0.953388
0.943287
0.933108
0.92285
0.912512
0.902094
0.891596
0.881016
0.870356
0.859613
0.848788
0.83788
0.82689
0.815816
0.80466
0.79342
0.782097
0.770692
0.759203
0.747631
0.735975
0.72423
0.712389
0.700435
0.688347
0.676058
1.73344
1.73346
1.73358
1.73383
1.7342
1.73467
1.73524
1.7359
1.73662
1.73739
1.73819
1.73898
1.73976
1.74048
1.74113
1.74167
1.74209
1.74236
1.74247
1.74241
1.74217
1.74175
1.74113
1.74033
1.73934
1.73816
1.73681
1.73528
1.73359
1.73173
1.72972
1.72757
1.72527
1.72284
1.72028
1.7176
1.71481
1.7119
1.70889
1.70577
1.70256
1.69925
1.69586
1.69238
1.68881
1.68517
1.68145
1.67765
1.67378
1.66984
1.66584
1.66177
1.65763
1.65343
1.64917
1.64484
1.64046
1.63602
1.63153
1.62698
1.62237
1.61772
1.613
1.60824
1.60342
1.59856
1.59364
1.58867
1.58365
1.57858
1.57347
1.5683
1.56308
1.55782
1.55251
1.54715
1.54174
1.53629
1.53078
1.52523
1.51963
1.51398
1.50829
1.50254
1.49675
1.49091
1.48502
1.47908
1.4731
1.46706
1.46098
1.45484
1.44866
1.44242
1.43614
1.42981
1.42342
1.41699
1.4105
1.40396
1.39737
1.39073
1.38404
1.37729
1.37049
1.36364
1.35673
1.34977
1.34276
1.33569
1.32856
1.32138
1.31415
1.30685
1.2995
1.29209
1.28463
1.2771
1.26952
1.26188
1.25417
1.24641
1.23859
1.23071
1.22276
1.21476
1.20669
1.19855
1.19036
1.1821
1.17378
1.16539
1.15693
1.14842
1.13983
1.13118
1.12246
1.11367
1.10481
1.09589
1.0869
1.07783
1.0687
1.05949
1.05022
1.04087
1.03144
1.02195
1.01238
1.00274
0.99302
0.983226
0.973356
0.96341
0.953387
0.943285
0.933105
0.922847
0.912508
0.90209
0.891591
0.881011
0.870348
0.859604
0.848777
0.837866
0.826872
0.815794
0.804632
0.793385
0.782052
0.770634
0.75913
0.747537
0.735854
0.724074
0.712189
0.700181
0.688027
0.675673
1.73111
1.7311
1.7312
1.73148
1.73192
1.73249
1.7332
1.73402
1.73494
1.73593
1.73698
1.73803
1.73907
1.74006
1.74096
1.74174
1.74238
1.74285
1.74314
1.74323
1.74311
1.74278
1.74223
1.74148
1.74052
1.73936
1.73801
1.73648
1.73476
1.73288
1.73084
1.72865
1.72631
1.72384
1.72124
1.71851
1.71567
1.71272
1.70966
1.7065
1.70325
1.6999
1.69646
1.69294
1.68934
1.68567
1.68191
1.67808
1.67419
1.67022
1.66619
1.66209
1.65793
1.6537
1.64942
1.64508
1.64068
1.63623
1.63172
1.62715
1.62253
1.61786
1.61314
1.60836
1.60353
1.59866
1.59373
1.58875
1.58373
1.57865
1.57353
1.56836
1.56314
1.55787
1.55255
1.54719
1.54178
1.53632
1.53081
1.52525
1.51965
1.514
1.5083
1.50256
1.49676
1.49092
1.48503
1.47909
1.4731
1.46707
1.46098
1.45485
1.44866
1.44243
1.43614
1.42981
1.42342
1.41699
1.4105
1.40396
1.39737
1.39073
1.38404
1.37729
1.37049
1.36364
1.35673
1.34977
1.34276
1.33569
1.32856
1.32138
1.31414
1.30685
1.2995
1.29209
1.28462
1.2771
1.26952
1.26187
1.25417
1.24641
1.23859
1.23071
1.22276
1.21475
1.20668
1.19855
1.19036
1.1821
1.17378
1.16539
1.15693
1.14841
1.13983
1.13118
1.12246
1.11367
1.10481
1.09589
1.08689
1.07783
1.0687
1.05949
1.05021
1.04087
1.03144
1.02195
1.01238
1.00274
0.993018
0.983225
0.973355
0.963409
0.953385
0.943283
0.933103
0.922844
0.912505
0.902086
0.891586
0.881004
0.870341
0.859595
0.848765
0.837852
0.826854
0.815772
0.804604
0.793349
0.782007
0.770577
0.759056
0.747443
0.735734
0.723921
0.711995
0.699938
0.687726
0.675315
1.72803
1.72797
1.72807
1.72838
1.7289
1.7296
1.73048
1.73152
1.73269
1.73397
1.73533
1.73672
1.7381
1.73942
1.74064
1.74172
1.74263
1.74335
1.74384
1.7441
1.74412
1.7439
1.74344
1.74274
1.74182
1.74067
1.73932
1.73777
1.73604
1.73413
1.73205
1.72981
1.72743
1.72491
1.72226
1.71948
1.71659
1.71359
1.71048
1.70728
1.70398
1.70059
1.69711
1.69355
1.68992
1.6862
1.68241
1.67855
1.67462
1.67062
1.66656
1.66244
1.65825
1.65401
1.6497
1.64534
1.64092
1.63645
1.63192
1.62734
1.62271
1.61802
1.61328
1.6085
1.60366
1.59877
1.59383
1.58885
1.58381
1.57873
1.5736
1.56842
1.5632
1.55792
1.5526
1.54723
1.54182
1.53635
1.53084
1.52528
1.51968
1.51402
1.50832
1.50258
1.49678
1.49093
1.48504
1.4791
1.47311
1.46707
1.46099
1.45485
1.44867
1.44243
1.43614
1.42981
1.42342
1.41699
1.4105
1.40396
1.39737
1.39073
1.38404
1.37729
1.37049
1.36364
1.35673
1.34977
1.34276
1.33569
1.32856
1.32138
1.31414
1.30685
1.2995
1.29209
1.28462
1.2771
1.26952
1.26187
1.25417
1.24641
1.23859
1.2307
1.22276
1.21475
1.20668
1.19855
1.19036
1.1821
1.17377
1.16539
1.15693
1.14841
1.13983
1.13118
1.12246
1.11367
1.10481
1.09589
1.08689
1.07783
1.0687
1.05949
1.05021
1.04086
1.03144
1.02195
1.01238
1.00274
0.993017
0.983223
0.973354
0.963407
0.953383
0.943281
0.9331
0.922841
0.912501
0.902082
0.891581
0.880998
0.870333
0.859585
0.848754
0.837838
0.826836
0.815749
0.804575
0.793313
0.781962
0.770519
0.758984
0.747351
0.735617
0.723774
0.71181
0.699708
0.687446
0.674984
1.72395
1.72385
1.72393
1.72429
1.72491
1.72578
1.72687
1.72819
1.72969
1.73135
1.73311
1.73493
1.73675
1.73849
1.74012
1.74157
1.74282
1.74382
1.74456
1.74502
1.7452
1.7451
1.74473
1.74409
1.7432
1.74207
1.74072
1.73915
1.73739
1.73544
1.73332
1.73104
1.72861
1.72604
1.72334
1.72051
1.71757
1.71451
1.71136
1.7081
1.70476
1.70132
1.6978
1.6942
1.69052
1.68677
1.68294
1.67905
1.67508
1.67106
1.66697
1.66281
1.6586
1.65433
1.65
1.64562
1.64118
1.63669
1.63214
1.62755
1.6229
1.6182
1.61344
1.60864
1.60379
1.5989
1.59395
1.58895
1.58391
1.57882
1.57368
1.56849
1.56326
1.55798
1.55265
1.54728
1.54186
1.53639
1.53088
1.52532
1.51971
1.51405
1.50835
1.5026
1.4968
1.49095
1.48506
1.47911
1.47312
1.46708
1.46099
1.45486
1.44867
1.44243
1.43615
1.42981
1.42343
1.41699
1.4105
1.40396
1.39737
1.39073
1.38404
1.37729
1.37049
1.36364
1.35673
1.34977
1.34276
1.33569
1.32856
1.32138
1.31414
1.30685
1.2995
1.29209
1.28462
1.2771
1.26951
1.26187
1.25417
1.24641
1.23859
1.2307
1.22276
1.21475
1.20668
1.19855
1.19036
1.1821
1.17377
1.16539
1.15693
1.14841
1.13983
1.13117
1.12245
1.11367
1.10481
1.09589
1.08689
1.07783
1.06869
1.05949
1.05021
1.04086
1.03144
1.02195
1.01238
1.00273
0.993016
0.983222
0.973352
0.963405
0.953381
0.943279
0.933098
0.922838
0.912498
0.902077
0.891576
0.880992
0.870326
0.859576
0.848742
0.837823
0.826818
0.815727
0.804547
0.793278
0.781917
0.770463
0.758912
0.747262
0.735504
0.723633
0.711635
0.699493
0.687186
0.674679
1.71839
1.71825
1.71833
1.71876
1.71951
1.72058
1.72196
1.72364
1.72559
1.72776
1.73008
1.73248
1.73488
1.73719
1.73934
1.74127
1.74293
1.74429
1.74533
1.74603
1.74639
1.74643
1.74616
1.74559
1.74473
1.74361
1.74225
1.74067
1.73887
1.73688
1.73471
1.73238
1.72989
1.72726
1.7245
1.72162
1.71862
1.71551
1.7123
1.70899
1.7056
1.70211
1.69854
1.6949
1.69118
1.68738
1.68352
1.67959
1.67559
1.67153
1.66741
1.66322
1.65898
1.65469
1.65033
1.64593
1.64147
1.63695
1.63239
1.62777
1.6231
1.61839
1.61362
1.60881
1.60395
1.59903
1.59408
1.58907
1.58402
1.57892
1.57377
1.56858
1.56334
1.55805
1.55272
1.54734
1.54191
1.53644
1.53092
1.52535
1.51974
1.51408
1.50837
1.50262
1.49682
1.49097
1.48507
1.47913
1.47313
1.46709
1.461
1.45487
1.44868
1.44244
1.43615
1.42982
1.42343
1.41699
1.4105
1.40397
1.39737
1.39073
1.38404
1.37729
1.37049
1.36364
1.35673
1.34977
1.34276
1.33568
1.32856
1.32138
1.31414
1.30685
1.2995
1.29209
1.28462
1.2771
1.26951
1.26187
1.25417
1.24641
1.23859
1.2307
1.22276
1.21475
1.20668
1.19855
1.19035
1.1821
1.17377
1.16538
1.15693
1.14841
1.13983
1.13117
1.12245
1.11367
1.10481
1.09589
1.08689
1.07783
1.06869
1.05949
1.05021
1.04086
1.03144
1.02195
1.01238
1.00273
0.993015
0.983221
0.973351
0.963404
0.95338
0.943277
0.933096
0.922835
0.912495
0.902074
0.891571
0.880986
0.870319
0.859567
0.848731
0.83781
0.826802
0.815705
0.80452
0.793244
0.781874
0.770409
0.758845
0.747176
0.735398
0.7235
0.711471
0.699294
0.686947
0.674401
1.71116
1.711
1.71111
1.71163
1.71255
1.71388
1.71563
1.7178
1.72034
1.72319
1.72626
1.72943
1.73258
1.7356
1.73841
1.74091
1.74306
1.74483
1.74619
1.74714
1.7477
1.74788
1.7477
1.74718
1.74635
1.74524
1.74386
1.74224
1.7404
1.73836
1.73614
1.73375
1.73121
1.72852
1.7257
1.72275
1.7197
1.71653
1.71326
1.7099
1.70645
1.70292
1.69931
1.69561
1.69185
1.68801
1.68411
1.68014
1.67611
1.67201
1.66786
1.66365
1.65938
1.65505
1.65068
1.64625
1.64176
1.63723
1.63264
1.62801
1.62332
1.61859
1.61381
1.60898
1.6041
1.59918
1.59421
1.58919
1.58413
1.57902
1.57386
1.56866
1.56342
1.55812
1.55278
1.5474
1.54196
1.53649
1.53096
1.52539
1.51978
1.51411
1.5084
1.50264
1.49684
1.49099
1.48509
1.47914
1.47315
1.46711
1.46101
1.45487
1.44868
1.44245
1.43616
1.42982
1.42343
1.417
1.41051
1.40397
1.39738
1.39073
1.38404
1.37729
1.37049
1.36364
1.35673
1.34977
1.34275
1.33568
1.32856
1.32138
1.31414
1.30685
1.29949
1.29209
1.28462
1.2771
1.26951
1.26187
1.25417
1.24641
1.23858
1.2307
1.22276
1.21475
1.20668
1.19855
1.19035
1.18209
1.17377
1.16538
1.15693
1.14841
1.13982
1.13117
1.12245
1.11367
1.10481
1.09589
1.08689
1.07783
1.06869
1.05949
1.05021
1.04086
1.03144
1.02194
1.01238
1.00273
0.993013
0.983219
0.973349
0.963402
0.953377
0.943274
0.933093
0.922832
0.912491
0.902069
0.891566
0.88098
0.870311
0.859558
0.84872
0.837796
0.826784
0.815684
0.804493
0.79321
0.781833
0.770357
0.758779
0.747095
0.735296
0.723375
0.711317
0.699108
0.686727
0.674147
1.70291
1.70278
1.70297
1.70362
1.70477
1.70644
1.70867
1.71145
1.71473
1.71841
1.72235
1.7264
1.73038
1.73417
1.73764
1.74071
1.74333
1.74547
1.74712
1.74829
1.74901
1.7493
1.74918
1.7487
1.74788
1.74676
1.74536
1.74371
1.74183
1.73974
1.73747
1.73502
1.73242
1.72968
1.7268
1.7238
1.72069
1.71747
1.71416
1.71075
1.70725
1.70367
1.70001
1.69628
1.69248
1.6886
1.68466
1.68066
1.67659
1.67247
1.66828
1.66405
1.65975