/*--------------------------------*- C++ -*----------------------------------*\
  =========                 |
  \\      /  F ield         | OpenFOAM: The Open Source CFD Toolbox
   \\    /   O peration     | Website:  https://openfoam.org
    \\  /    A nd           | Version:  8
     \\/     M anipulation  |
\*---------------------------------------------------------------------------*/
FoamFile
{
    version     2.0;
    format      ascii;
    class       surfaceScalarField;
    location    "0.08";
    object      phi;
}
// * * * * * * * * * * * * * * * * * * * * * * * * * * * * * * * * * * * * * //

dimensions      [0 3 -1 0 0 0 0];

internalField   nonuniform List<scalar> 
24170
(
6.3585e-08
1.12499e-07
3.24015e-08
3.11835e-08
2.48956e-08
7.50593e-09
2.21243e-08
2.77125e-09
2.06845e-08
1.43987e-09
1.98864e-08
7.98094e-10
1.9531e-08
3.55389e-10
1.94905e-08
4.04526e-11
1.97016e-08
-2.11023e-10
2.01433e-08
-4.41753e-10
2.0824e-08
-6.80647e-10
2.17822e-08
-9.5824e-10
2.31012e-08
-1.31899e-09
2.49452e-08
-1.84404e-09
2.7672e-08
-2.72675e-09
3.21641e-08
-4.49217e-09
4.11194e-08
-8.95526e-09
-3.3189e-08
7.43084e-08
1.40773e-07
1.60449e-07
9.65897e-08
7.53667e-08
7.66667e-08
2.74289e-08
6.72839e-08
1.21541e-08
6.25785e-08
6.14529e-09
6.00067e-08
3.36982e-09
5.87427e-08
1.61945e-09
5.84255e-08
3.57588e-10
5.88584e-08
-6.43928e-10
5.99583e-08
-1.54157e-09
6.17261e-08
-2.44849e-09
6.42437e-08
-3.47586e-09
6.76981e-08
-4.77339e-09
7.24491e-08
-6.59499e-09
7.91831e-08
-9.46076e-09
8.93281e-08
-1.46372e-08
1.05934e-07
-2.55611e-08
-5.76519e-08
1.30397e-07
1.93506e-07
1.6921e-07
1.57379e-07
1.11494e-07
1.31217e-07
5.35902e-08
1.1579e-07
2.75818e-08
1.07395e-07
1.45395e-08
1.02749e-07
8.01608e-09
1.00323e-07
4.04604e-09
9.94828e-08
1.19735e-09
9.98951e-08
-1.0562e-09
1.01396e-07
-3.04267e-09
1.03953e-07
-5.00559e-09
1.07651e-07
-7.17358e-09
1.1271e-07
-9.83241e-09
1.19544e-07
-1.3429e-08
1.28863e-07
-1.87798e-08
1.41837e-07
-2.76108e-08
1.59814e-07
-4.35387e-08
-7.66815e-08
1.78844e-07
2.30579e-07
1.55416e-07
2.09393e-07
1.32681e-07
1.84626e-07
7.83564e-08
1.66084e-07
4.6124e-08
1.54445e-07
2.61786e-08
1.47627e-07
1.48346e-08
1.4386e-07
7.81226e-09
1.42273e-07
2.78521e-09
1.42403e-07
-1.18685e-09
1.44006e-07
-4.64544e-09
1.46993e-07
-7.9923e-09
1.51411e-07
-1.1592e-08
1.57446e-07
-1.5867e-08
1.65437e-07
-2.14198e-08
1.75887e-07
-2.92298e-08
1.89335e-07
-4.10597e-08
2.05654e-07
-5.98571e-08
-9.11893e-08
2.20162e-07
2.5656e-07
1.312e-07
2.50765e-07
1.38476e-07
2.32983e-07
9.61387e-08
2.15412e-07
6.36945e-08
2.02241e-07
3.93495e-08
1.93723e-07
2.33525e-08
1.88681e-07
1.28546e-08
1.86238e-07
5.22831e-09
1.85879e-07
-8.27574e-10
1.87298e-07
-6.06458e-09
1.90347e-07
-1.10417e-08
1.95011e-07
-1.62558e-08
2.01386e-07
-2.22419e-08
2.09657e-07
-2.96908e-08
2.20019e-07
-3.95925e-08
2.32412e-07
-5.3452e-08
2.4583e-07
-7.32753e-08
-1.01591e-07
2.56232e-07
2.75596e-07
1.04625e-07
2.81976e-07
1.32096e-07
2.73645e-07
1.0447e-07
2.60702e-07
7.66378e-08
2.48549e-07
5.15021e-08
2.39551e-07
3.23506e-08
2.33725e-07
1.86807e-08
2.30565e-07
8.38878e-09
2.29652e-07
8.50786e-11
2.3069e-07
-7.10206e-09
2.33492e-07
-1.38442e-08
2.37975e-07
-2.07392e-08
2.44127e-07
-2.83935e-08
2.51949e-07
-3.75129e-08
2.61339e-07
-4.89824e-08
2.7181e-07
-6.39229e-08
2.82002e-07
-8.3467e-08
-1.08377e-07
2.88787e-07
2.91273e-07
8.02461e-08
3.05302e-07
1.18067e-07
3.06e-07
1.03771e-07
2.99712e-07
8.29263e-08
2.91005e-07
6.02088e-08
2.8322e-07
4.01356e-08
2.77562e-07
2.43388e-08
2.74154e-07
1.17964e-08
2.72855e-07
1.38467e-09
2.73474e-07
-7.72178e-09
2.75844e-07
-1.62136e-08
2.79834e-07
-2.47295e-08
2.85332e-07
-3.38914e-08
2.92177e-07
-4.43577e-08
3.00038e-07
-5.68434e-08
3.08196e-07
-7.20812e-08
3.15274e-07
-9.05449e-08
-1.12092e-07
3.18989e-07
3.06295e-07
6.00004e-08
3.23784e-07
1.00578e-07
3.31292e-07
9.62636e-08
3.31762e-07
8.24559e-08
3.27951e-07
6.40199e-08
3.2295e-07
4.51373e-08
3.18631e-07
2.86577e-08
3.15724e-07
1.47028e-08
3.14452e-07
2.65652e-09
3.14822e-07
-8.09156e-09
3.16745e-07
-1.81363e-08
3.20089e-07
-2.80741e-08
3.24679e-07
-3.84808e-08
3.30239e-07
-4.99178e-08
3.36305e-07
-6.29094e-08
3.42085e-07
-7.78617e-08
3.46364e-07
-9.48235e-08
-1.13269e-07
3.47541e-07
3.22402e-07
4.4179e-08
3.40318e-07
8.26624e-08
3.51872e-07
8.47092e-08
3.57771e-07
7.65573e-08
3.59011e-07
6.27795e-08
3.57693e-07
4.64555e-08
3.55702e-07
3.06488e-08
3.54103e-07
1.63012e-08
3.53424e-07
3.33577e-09
3.53887e-07
-8.55426e-09
3.55524e-07
-1.97732e-08
3.58247e-07
-3.07974e-08
3.61864e-07
-4.20974e-08
3.6605e-07
-5.41042e-08
3.70299e-07
-6.71582e-08
3.7386e-07
-8.14224e-08
3.75749e-07
-9.67126e-08
-1.12406e-07
3.74886e-07
3.40519e-07
3.22444e-08
3.5711e-07
6.60715e-08
3.7032e-07
7.15e-08
3.79709e-07
6.71674e-08
3.85114e-07
5.73748e-08
3.87507e-07
4.40629e-08
3.88321e-07
2.98346e-08
3.88619e-07
1.60031e-08
3.89063e-07
2.89199e-09
3.90023e-07
-9.51475e-09
3.91651e-07
-2.14003e-08
3.93922e-07
-3.30691e-08
3.96671e-07
-4.48466e-08
3.99584e-07
-5.70168e-08
4.02184e-07
-6.97585e-08
4.03832e-07
-8.30703e-08
4.03787e-07
-9.66675e-08
-1.0997e-07
4.01351e-07
3.60986e-07
2.34266e-08
3.75509e-07
5.15488e-08
3.88793e-07
5.82156e-08
3.99861e-07
5.60994e-08
4.08046e-07
4.91906e-08
4.1348e-07
3.86285e-08
4.16984e-07
2.63304e-08
4.19369e-07
1.3618e-08
4.21246e-07
1.01483e-09
4.23027e-07
-1.12958e-08
4.2493e-07
-2.33025e-08
4.2699e-07
-3.51293e-08
4.29087e-07
-4.69443e-08
4.30958e-07
-5.88875e-08
4.32205e-07
-7.10058e-08
4.32332e-07
-8.31964e-08
4.30818e-07
-9.51539e-08
-1.06397e-07
4.27244e-07
3.22586e-07
1.78858e-08
3.33142e-07
4.09931e-08
3.43932e-07
4.74253e-08
3.53589e-07
4.64431e-08
3.61589e-07
4.11901e-08
3.67764e-07
3.24539e-08
3.72372e-07
2.17217e-08
3.75828e-07
1.01626e-08
3.78526e-07
-1.68347e-09
3.80772e-07
-1.35419e-08
3.82747e-07
-2.52772e-08
3.84501e-07
-3.6883e-08
3.85964e-07
-4.8408e-08
3.86963e-07
-5.98864e-08
3.87238e-07
-7.12801e-08
3.86479e-07
-8.24373e-08
3.84393e-07
-9.30684e-08
-1.02787e-07
3.80783e-07
3.91446e-07
1.29228e-08
4.01751e-07
3.06887e-08
4.12965e-07
3.6211e-08
4.23746e-07
3.56618e-08
4.33415e-07
3.15215e-08
4.41549e-07
2.43197e-08
4.48149e-07
1.51219e-08
4.53424e-07
4.88757e-09
4.57635e-07
-5.89409e-09
4.61021e-07
-1.69287e-08
4.6375e-07
-2.80059e-08
4.65877e-07
-3.90102e-08
4.67352e-07
-4.98824e-08
4.68028e-07
-6.0563e-08
4.67695e-07
-7.09469e-08
4.66115e-07
-8.08574e-08
4.63089e-07
-9.00419e-08
-9.82051e-08
4.58507e-07
4.75491e-07
8.55976e-09
4.85244e-07
2.0936e-08
4.96512e-07
2.49429e-08
5.07971e-07
2.42033e-08
5.18881e-07
2.06108e-08
5.2866e-07
1.45405e-08
5.37087e-07
6.69548e-09
5.44165e-07
-2.19098e-09
5.49982e-07
-1.1711e-08
5.54654e-07
-2.16006e-08
5.58278e-07
-3.16297e-08
5.60887e-07
-4.16191e-08
5.62439e-07
-5.14344e-08
5.62828e-07
-6.09517e-08
5.61908e-07
-7.00272e-08
5.59534e-07
-7.84841e-08
5.55612e-07
-8.61196e-08
-9.27236e-08
5.50131e-07
5.78066e-07
4.80516e-09
5.87071e-07
1.1931e-08
5.98146e-07
1.38686e-08
6.09907e-07
1.24419e-08
6.216e-07
8.9182e-09
6.32567e-07
3.5728e-09
6.42427e-07
-3.16391e-09
6.51014e-07
-1.07779e-08
6.58251e-07
-1.89483e-08
6.64112e-07
-2.74614e-08
6.68593e-07
-3.61116e-08
6.71682e-07
-4.47072e-08
6.73332e-07
-5.30849e-08
6.73477e-07
-6.10964e-08
6.72042e-07
-6.85928e-08
6.68978e-07
-7.542e-08
6.64288e-07
-8.14296e-08
-8.64844e-08
6.58049e-07
7.03316e-07
1.58254e-09
7.11531e-07
3.7165e-09
7.22249e-07
3.15018e-09
7.3407e-07
6.21329e-10
7.46186e-07
-3.19765e-09
7.57903e-07
-8.14413e-09
7.6873e-07
-1.39916e-08
7.78373e-07
-2.04201e-08
7.86626e-07
-2.72017e-08
7.93346e-07
-3.41814e-08
7.98437e-07
-4.12029e-08
8.01836e-07
-4.81054e-08
8.03492e-07
-5.47416e-08
8.03375e-07
-6.09786e-08
8.01474e-07
-6.66925e-08
7.97823e-07
-7.17686e-08
7.92504e-07
-7.61111e-08
-7.9641e-08
7.85661e-07
8.56268e-07
-1.26157e-09
8.63863e-07
-3.87897e-09
8.74271e-07
-7.25724e-09
8.86104e-07
-1.12117e-08
8.9847e-07
-1.55638e-08
9.10642e-07
-2.03156e-08
9.22052e-07
-2.54016e-08
9.32304e-07
-3.06726e-08
9.4111e-07
-3.60072e-08
9.48248e-07
-4.13195e-08
9.53564e-07
-4.6519e-08
9.56964e-07
-5.15061e-08
9.58407e-07
-5.61844e-08
9.57895e-07
-6.04663e-08
9.55476e-07
-6.42735e-08
9.51246e-07
-6.75383e-08
9.45346e-07
-7.02117e-08
-7.22579e-08
9.37963e-07
1.04305e-06
-3.97907e-09
1.05058e-06
-1.14051e-08
1.06118e-06
-1.78597e-08
1.07341e-06
-2.34354e-08
1.08624e-06
-2.84002e-08
1.09891e-06
-3.29859e-08
1.11079e-06
-3.72793e-08
1.12141e-06
-4.12908e-08
1.13042e-06
-4.50223e-08
1.13758e-06
-4.84757e-08
1.1427e-06
-5.16439e-08
1.14571e-06
-5.45104e-08
1.14658e-06
-5.70538e-08
1.14536e-06
-5.92499e-08
1.14216e-06
-6.10748e-08
1.13713e-06
-6.25071e-08
1.13045e-06
-6.35348e-08
-6.41514e-08
1.12235e-06
1.27141e-06
-7.20468e-09
1.28037e-06
-2.03682e-08
1.29283e-06
-3.03148e-08
1.30695e-06
-3.75597e-08
1.32151e-06
-4.29596e-08
1.3356e-06
-4.70798e-08
1.34852e-06
-5.01974e-08
1.35974e-06
-5.25079e-08
1.36889e-06
-5.41693e-08
1.37572e-06
-5.53053e-08
1.3801e-06
-5.60236e-08
1.382e-06
-5.64184e-08
1.38151e-06
-5.65612e-08
1.37876e-06
-5.64979e-08
1.37394e-06
-5.62544e-08
1.36728e-06
-5.58435e-08
1.35901e-06
-5.52726e-08
-5.45443e-08
1.34941e-06
9.31616e-07
-1.04252e-08
9.40255e-07
-2.90079e-08
9.51531e-07
-4.159e-08
9.6345e-07
-4.94787e-08
9.7511e-07
-5.46204e-08
9.85904e-07
-5.78734e-08
9.95281e-07
-5.95739e-08
1.00286e-06
-6.00835e-08
1.00842e-06
-5.97378e-08
1.01191e-06
-5.87938e-08
1.01336e-06
-5.74675e-08
1.01288e-06
-5.59393e-08
1.01065e-06
-5.43365e-08
1.00689e-06
-5.27338e-08
1.0018e-06
-5.11666e-08
9.95603e-07
-4.96452e-08
9.88497e-07
-4.81662e-08
-4.67202e-08
9.80673e-07
8.12601e-07
-1.48116e-08
8.2367e-07
-4.00768e-08
8.369e-07
-5.48197e-08
8.49941e-07
-6.252e-08
8.62008e-07
-6.66876e-08
8.72404e-07
-6.82689e-08
8.80539e-07
-6.7709e-08
8.86164e-07
-6.57088e-08
8.89294e-07
-6.28679e-08
8.901e-07
-5.95996e-08
8.8885e-07
-5.62174e-08
8.85857e-07
-5.2946e-08
8.81432e-07
-4.99123e-08
8.75864e-07
-4.71655e-08
8.69403e-07
-4.47059e-08
8.62266e-07
-4.25079e-08
8.54633e-07
-4.05335e-08
-3.87457e-08
8.46659e-07
7.10247e-07
-2.14665e-08
7.253e-07
-5.51298e-08
7.41327e-07
-7.08465e-08
7.55827e-07
-7.70205e-08
7.68018e-07
-7.88787e-08
7.77003e-07
-7.72531e-08
7.82408e-07
-7.31141e-08
7.84472e-07
-6.77731e-08
7.83693e-07
-6.20893e-08
7.80637e-07
-5.65428e-08
7.75852e-07
-5.14326e-08
7.69819e-07
-4.69128e-08
7.62921e-07
-4.30152e-08
7.55454e-07
-3.96982e-08
7.47636e-07
-3.68878e-08
7.39628e-07
-3.45002e-08
7.31548e-07
-3.24535e-08
-3.06812e-08
7.23484e-07
6.2319e-07
-3.21445e-08
6.43578e-07
-7.55172e-08
6.62157e-07
-8.94253e-08
6.76698e-07
-9.15622e-08
6.86448e-07
-8.86282e-08
6.90891e-07
-8.1696e-08
6.9068e-07
-7.29037e-08
6.87002e-07
-6.40951e-08
6.80956e-07
-5.60426e-08
6.73423e-07
-4.90104e-08
6.65069e-07
-4.30779e-08
6.56348e-07
-3.81925e-08
6.47553e-07
-3.42199e-08
6.38858e-07
-3.10029e-08
6.30362e-07
-2.83918e-08
6.22117e-07
-2.62551e-08
6.14145e-07
-2.44821e-08
-2.29914e-08
6.06455e-07
5.50449e-07
-4.93709e-08
5.7612e-07
-1.01188e-07
5.94359e-07
-1.07665e-07
6.04499e-07
-1.01702e-07
6.06893e-07
-9.1022e-08
6.02866e-07
-7.76691e-08
5.94787e-07
-6.4825e-08
5.84651e-07
-5.39591e-08
5.73731e-07
-4.51225e-08
5.62791e-07
-3.80708e-08
5.52252e-07
-3.25383e-08
5.42298e-07
-2.82391e-08
5.32981e-07
-2.49028e-08
5.24281e-07
-2.2303e-08
5.16149e-07
-2.02592e-08
5.08523e-07
-1.86298e-08
5.01347e-07
-1.73056e-08
-1.62119e-08
4.94567e-07
4.90307e-07
-7.54801e-08
5.17411e-07
-1.28292e-07
5.28508e-07
-1.18761e-07
5.27599e-07
-1.00793e-07
5.18196e-07
-8.16191e-08
5.04328e-07
-6.38017e-08
4.89344e-07
-4.98405e-08
4.74923e-07
-3.95386e-08
4.61705e-07
-3.1904e-08
4.4986e-07
-2.62256e-08
4.3933e-07
-2.2009e-08
4.29959e-07
-1.88676e-08
4.21564e-07
-1.65084e-08
4.13979e-07
-1.47174e-08
4.07057e-07
-1.33379e-08
4.00682e-07
-1.22546e-08
3.9476e-07
-1.13832e-08
-1.06694e-08
3.89217e-07
4.38445e-07
-1.09817e-07
4.57298e-07
-1.47145e-07
4.52478e-07
-1.13941e-07
4.36163e-07
-8.44776e-08
4.15447e-07
-6.0903e-08
3.95314e-07
-4.36687e-08
3.77835e-07
-3.23621e-08
3.63145e-07
-2.48479e-08
3.50855e-07
-1.96143e-08
3.40527e-07
-1.58971e-08
3.31749e-07
-1.32314e-08
3.24177e-07
-1.12956e-08
3.17538e-07
-9.86972e-09
3.11624e-07
-8.80332e-09
3.06277e-07
-7.99051e-09
3.01378e-07
-7.35582e-09
2.96842e-07
-6.84662e-09
-6.4304e-09
2.92603e-07
3.86416e-07
-1.44438e-07
3.83318e-07
-1.44047e-07
3.58169e-07
-8.87926e-08
3.29609e-07
-5.59175e-08
3.04427e-07
-3.57205e-08
2.84741e-07
-2.39826e-08
2.6969e-07
-1.73111e-08
2.57942e-07
-1.31005e-08
2.48571e-07
-1.02432e-08
2.40938e-07
-8.26377e-09
2.34577e-07
-6.87077e-09
2.29154e-07
-5.8722e-09
2.24428e-07
-5.14377e-09
2.20227e-07
-4.60254e-09
2.16428e-07
-4.19125e-09
2.12942e-07
-3.86973e-09
2.09707e-07
-3.61147e-09
-3.4002e-09
2.06676e-07
3.22119e-07
-1.60301e-07
2.87464e-07
-1.09392e-07
2.48549e-07
-4.98781e-08
2.18545e-07
-2.5913e-08
1.97784e-07
-1.49593e-08
1.83639e-07
-9.83823e-09
1.7343e-07
-7.10205e-09
1.65682e-07
-5.35158e-09
1.59613e-07
-4.17457e-09
1.54721e-07
-3.37223e-09
1.50663e-07
-2.81247e-09
1.47204e-07
-2.41306e-09
1.44183e-07
-2.12258e-09
1.41487e-07
-1.90692e-09
1.39039e-07
-1.74269e-09
1.36782e-07
-1.61353e-09
1.34681e-07
-1.50982e-09
-1.42448e-09
1.32705e-07
2.33015e-07
-1.26705e-07
1.72897e-07
-4.9273e-08
1.37564e-07
-1.45458e-08
1.17616e-07
-5.96506e-09
1.05961e-07
-3.30404e-09
9.83816e-08
-2.25879e-09
9.29244e-08
-1.64484e-09
8.88081e-08
-1.23535e-09
8.55996e-08
-9.66037e-10
8.30121e-08
-7.84713e-10
8.08578e-08
-6.58193e-10
7.90125e-08
-5.67788e-10
7.73919e-08
-5.01927e-10
7.59378e-08
-4.52849e-10
7.46104e-08
-4.15264e-10
7.33822e-08
-3.85336e-10
7.2234e-08
-3.61658e-10
-3.41543e-10
7.11511e-08
1.05394e-07
5.61212e-08
4.15753e-08
3.56103e-08
3.23062e-08
3.00474e-08
2.84026e-08
2.71672e-08
2.62012e-08
2.54165e-08
2.47583e-08
2.41905e-08
2.36886e-08
2.32357e-08
2.28205e-08
2.24351e-08
2.20735e-08
2.17319e-08
-7.19938e-11
7.19939e-11
-5.38985e-11
-1.80952e-11
1.61362e-10
-2.1526e-10
6.0806e-10
-4.46697e-10
1.28453e-09
-6.76466e-10
2.17359e-09
-8.89065e-10
3.25177e-09
-1.07818e-09
4.49426e-09
-1.24249e-09
5.87761e-09
-1.38335e-09
7.38089e-09
-1.50328e-09
8.98601e-09
-1.60512e-09
1.06776e-08
-1.69159e-09
1.24427e-08
-1.76505e-09
1.42701e-08
-1.82743e-09
1.61503e-08
-1.88022e-09
1.80748e-08
-1.92454e-09
2.0036e-08
-1.96118e-09
2.20267e-08
-1.99067e-09
2.40401e-08
-2.01335e-09
2.60695e-08
-2.02945e-09
2.81086e-08
-2.03911e-09
3.0151e-08
-2.04243e-09
3.21906e-08
-2.03953e-09
3.42211e-08
-2.03053e-09
3.62367e-08
-2.01561e-09
3.82317e-08
-1.99497e-09
4.02006e-08
-1.9689e-09
4.21383e-08
-1.93769e-09
4.404e-08
-1.90172e-09
4.59014e-08
-1.86139e-09
4.77185e-08
-1.81711e-09
4.94878e-08
-1.76934e-09
5.12064e-08
-1.71855e-09
5.28716e-08
-1.66519e-09
5.44813e-08
-1.60972e-09
5.60339e-08
-1.5526e-09
5.75282e-08
-1.49426e-09
5.89633e-08
-1.43509e-09
6.03387e-08
-1.37548e-09
6.16545e-08
-1.31578e-09
6.29108e-08
-1.25631e-09
6.41082e-08
-1.19735e-09
6.52473e-08
-1.13916e-09
6.63293e-08
-1.08195e-09
6.73552e-08
-1.02591e-09
6.83264e-08
-9.71205e-10
6.92444e-08
-9.17965e-10
7.01107e-08
-8.66293e-10
7.09269e-08
-8.16271e-10
7.16949e-08
-7.67962e-10
7.24163e-08
-7.21401e-10
7.30929e-08
-6.76617e-10
7.37265e-08
-6.33613e-10
7.43189e-08
-5.9239e-10
7.48718e-08
-5.52928e-10
7.5387e-08
-5.15201e-10
7.58662e-08
-4.79181e-10
7.6311e-08
-4.44822e-10
7.67231e-08
-4.12084e-10
7.7104e-08
-3.80917e-10
7.74553e-08
-3.51267e-10
7.77784e-08
-3.23084e-10
7.80747e-08
-2.9631e-10
7.83456e-08
-2.70889e-10
7.85924e-08
-2.46766e-10
7.88162e-08
-2.23884e-10
7.90184e-08
-2.02188e-10
7.92001e-08
-1.81623e-10
7.93622e-08
-1.62139e-10
7.95059e-08
-1.43678e-10
7.96321e-08
-1.26195e-10
7.97417e-08
-1.09639e-10
7.98357e-08
-9.39606e-11
7.99148e-08
-7.91163e-11
7.99798e-08
-6.50588e-11
8.00316e-08
-5.17471e-11
8.00707e-08
-3.91401e-11
8.00979e-08
-2.72156e-11
8.0114e-08
-1.6012e-11
8.012e-08
-6.06272e-12
8.01161e-08
3.95748e-12
8.01017e-08
1.43237e-11
8.00782e-08
2.3512e-11
8.00462e-08
3.2024e-11
8.00061e-08
4.00614e-11
7.99585e-08
4.76744e-11
7.99036e-08
5.48906e-11
7.98418e-08
6.17378e-11
7.97736e-08
6.82319e-11
7.96992e-08
7.43909e-11
7.9619e-08
8.02356e-11
7.95332e-08
8.5782e-11
7.94421e-08
9.10498e-11
7.93461e-08
9.60521e-11
7.92453e-08
1.0081e-10
7.914e-08
1.05334e-10
7.90303e-08
1.09638e-10
7.89166e-08
1.13739e-10
7.87989e-08
1.17644e-10
7.86776e-08
1.21366e-10
7.85526e-08
1.24913e-10
7.84243e-08
1.28297e-10
7.82928e-08
1.31525e-10
7.81582e-08
1.3461e-10
7.80207e-08
1.37556e-10
7.78803e-08
1.40376e-10
7.77372e-08
1.43075e-10
7.75915e-08
1.45662e-10
7.74434e-08
1.48145e-10
7.72929e-08
1.5053e-10
7.714e-08
1.52824e-10
7.6985e-08
1.55035e-10
7.68278e-08
1.57167e-10
7.66686e-08
1.59227e-10
7.65074e-08
1.61222e-10
7.63442e-08
1.63157e-10
7.61792e-08
1.65035e-10
7.60123e-08
1.66864e-10
7.58437e-08
1.68642e-10
7.56733e-08
1.7038e-10
7.55012e-08
1.72076e-10
7.53275e-08
1.73738e-10
7.51521e-08
1.75368e-10
7.49751e-08
1.76972e-10
7.47966e-08
1.78551e-10
7.46165e-08
1.80106e-10
7.44348e-08
1.81643e-10
7.42517e-08
1.83157e-10
7.4067e-08
1.84653e-10
7.38809e-08
1.86132e-10
7.36933e-08
1.87594e-10
7.35043e-08
1.89044e-10
7.33138e-08
1.9048e-10
7.31219e-08
1.91908e-10
7.29286e-08
1.93328e-10
7.27338e-08
1.94742e-10
7.25377e-08
1.96148e-10
7.23401e-08
1.97552e-10
7.21412e-08
1.9895e-10
7.19408e-08
2.00343e-10
7.17391e-08
2.01734e-10
7.1536e-08
2.03123e-10
7.13315e-08
2.04516e-10
7.11255e-08
2.05914e-10
7.09182e-08
2.07321e-10
7.07095e-08
2.08739e-10
7.04993e-08
2.10173e-10
7.02877e-08
2.11625e-10
7.00746e-08
2.13098e-10
6.986e-08
2.14596e-10
6.96439e-08
2.16122e-10
6.94262e-08
2.17686e-10
6.92069e-08
2.19297e-10
6.89859e-08
2.20964e-10
6.87632e-08
2.22706e-10
6.85387e-08
2.24541e-10
6.83122e-08
2.26497e-10
6.80836e-08
2.28602e-10
6.78527e-08
2.30899e-10
6.76192e-08
2.3344e-10
6.73829e-08
2.36297e-10
6.71434e-08
2.39555e-10
6.69e-08
2.43335e-10
6.66523e-08
2.47788e-10
6.63991e-08
2.53119e-10
6.61395e-08
2.596e-10
6.58719e-08
2.67596e-10
6.55943e-08
2.77607e-10
6.5304e-08
2.90322e-10
6.49973e-08
3.06709e-10
6.46691e-08
3.28158e-10
6.43124e-08
3.56718e-10
6.39169e-08
3.95515e-10
6.34673e-08
4.49595e-10
6.294e-08
5.27336e-10
6.22942e-08
6.45818e-10
6.14608e-08
8.33389e-10
6.02422e-08
1.21859e-09
5.83162e-08
1.92596e-09
4.24501e-09
5.40712e-08
1.31718e-10
-5.97237e-11
6.24535e-10
-5.10913e-10
1.54824e-09
-1.13896e-09
2.92016e-09
-1.81862e-09
4.7252e-09
-2.48151e-09
6.92981e-09
-3.09367e-09
9.49193e-09
-3.64029e-09
1.23674e-08
-4.11793e-09
1.55136e-08
-4.52955e-09
1.88916e-08
-4.88128e-09
2.24668e-08
-5.18034e-09
2.62091e-08
-5.43389e-09
3.00924e-08
-5.64835e-09
3.40941e-08
-5.82915e-09
3.81945e-08
-5.98066e-09
4.23762e-08
-6.10622e-09
4.66234e-08
-6.20833e-09
5.09215e-08
-6.28878e-09
5.52569e-08
-6.34881e-09
5.96168e-08
-6.38929e-09
6.39885e-08
-6.41084e-09
6.836e-08
-6.41394e-09
7.27196e-08
-6.39907e-09
7.70557e-08
-6.3667e-09
8.13575e-08
-6.3174e-09
8.56144e-08
-6.25183e-09
8.98162e-08
-6.17077e-09
9.39537e-08
-6.07513e-09
9.80179e-08
-5.96592e-09
1.02001e-07
-5.84424e-09
1.05895e-07
-5.71127e-09
1.09694e-07
-5.56826e-09
1.13392e-07
-5.41646e-09
1.16984e-07
-5.25716e-09
1.20466e-07
-5.09162e-09
1.23834e-07
-4.92108e-09
1.27087e-07
-4.74674e-09
1.30221e-07
-4.56972e-09
1.33237e-07
-4.3911e-09
1.36133e-07
-4.21186e-09
1.38909e-07
-4.03292e-09
1.41567e-07
-3.85508e-09
1.44107e-07
-3.6791e-09
1.46531e-07
-3.50561e-09
1.4884e-07
-3.33518e-09
1.51037e-07
-3.1683e-09
1.53125e-07
-3.00537e-09
1.55105e-07
-2.84674e-09
1.56981e-07
-2.69266e-09
1.58757e-07
-2.54336e-09
1.60434e-07
-2.39898e-09
1.62017e-07
-2.25963e-09
1.63509e-07
-2.12536e-09
1.64913e-07
-1.99621e-09
1.66232e-07
-1.87215e-09
1.6747e-07
-1.75315e-09
1.6863e-07
-1.63913e-09
1.69715e-07
-1.53002e-09
1.70729e-07
-1.4257e-09
1.71674e-07
-1.32606e-09
1.72554e-07
-1.23097e-09
1.73371e-07
-1.14029e-09
1.74129e-07
-1.05387e-09
1.74829e-07
-9.71573e-10
1.75476e-07
-8.93238e-10
1.76071e-07
-8.18718e-10
1.76616e-07
-7.47855e-10
1.77115e-07
-6.80503e-10
1.77569e-07
-6.16506e-10
1.77981e-07
-5.55724e-10
1.78353e-07
-4.98008e-10
1.78687e-07
-4.43221e-10
1.78984e-07
-3.91226e-10
1.79247e-07
-3.41887e-10
1.79477e-07
-2.95085e-10
1.79676e-07
-2.50693e-10
1.79845e-07
-2.08601e-10
1.79987e-07
-1.68703e-10
1.80102e-07
-1.30934e-10
1.80191e-07
-9.52109e-11
1.80256e-07
-6.11403e-11
1.80299e-07
-2.86101e-11
1.8032e-07
2.02918e-12
1.80321e-07
3.10632e-11
1.80303e-07
5.85146e-11
1.80266e-07
8.4525e-11
1.80212e-07
1.09183e-10
1.80141e-07
1.3257e-10
1.80054e-07
1.54746e-10
1.79953e-07
1.75785e-10
1.79838e-07
1.95746e-10
1.79709e-07
2.14692e-10
1.79567e-07
2.32682e-10
1.79413e-07
2.49773e-10
1.79248e-07
2.6602e-10
1.79072e-07
2.81474e-10
1.78885e-07
2.96183e-10
1.78689e-07
3.10182e-10
1.78483e-07
3.23521e-10
1.78268e-07
3.36223e-10
1.78045e-07
3.48332e-10
1.77813e-07
3.59873e-10
1.77574e-07
3.70884e-10
1.77327e-07
3.81393e-10
1.77073e-07
3.91427e-10
1.76813e-07
4.01016e-10
1.76545e-07
4.10187e-10
1.76272e-07
4.18968e-10
1.75993e-07
4.27378e-10
1.75708e-07
4.35448e-10
1.75418e-07
4.43195e-10
1.75122e-07
4.50645e-10
1.74821e-07
4.57819e-10
1.74516e-07
4.64741e-10
1.74206e-07
4.71423e-10
1.73891e-07
4.77891e-10
1.73572e-07
4.8416e-10
1.73248e-07
4.90242e-10
1.72921e-07
4.96157e-10
1.72589e-07
5.01917e-10
1.72254e-07
5.07534e-10
1.71915e-07
5.13023e-10
1.71572e-07
5.18392e-10
1.71225e-07
5.23656e-10
1.70875e-07
5.28824e-10
1.70521e-07
5.33903e-10
1.70164e-07
5.38896e-10
1.69803e-07
5.43814e-10
1.69439e-07
5.48661e-10
1.69072e-07
5.53441e-10
1.68701e-07
5.58165e-10
1.68327e-07
5.62837e-10
1.6795e-07
5.67465e-10
1.6757e-07
5.7206e-10
1.67187e-07
5.76626e-10
1.668e-07
5.81165e-10
1.66411e-07
5.85691e-10
1.66018e-07
5.90199e-10
1.65622e-07
5.94698e-10
1.65224e-07
5.99191e-10
1.64822e-07
6.03683e-10
1.64417e-07
6.08176e-10
1.64008e-07
6.12683e-10
1.63597e-07
6.17205e-10
1.63183e-07
6.21757e-10
1.62765e-07
6.26342e-10
1.62344e-07
6.30969e-10
1.6192e-07
6.35645e-10
1.61493e-07
6.40382e-10
1.61062e-07
6.45191e-10
1.60628e-07
6.50089e-10
1.60191e-07
6.55102e-10
1.5975e-07
6.6025e-10
1.59305e-07
6.6558e-10
1.58857e-07
6.71133e-10
1.58405e-07
6.76973e-10
1.57948e-07
6.83171e-10
1.57487e-07
6.89828e-10
1.5702e-07
6.97067e-10
1.56549e-07
7.0505e-10
1.56071e-07
7.13987e-10
1.55587e-07
7.24144e-10
1.55094e-07
7.3588e-10
1.54592e-07
7.49661e-10
1.54079e-07
7.66101e-10
1.53553e-07
7.86026e-10
1.5301e-07
8.10543e-10
1.52446e-07
8.41162e-10
1.51857e-07
8.79957e-10
1.51233e-07
9.29854e-10
1.50567e-07
9.95024e-10
1.49842e-07
1.08159e-09
1.49038e-07
1.19887e-09
1.48126e-07
1.36161e-09
1.47059e-07
1.59435e-09
1.45763e-07
1.94261e-09
1.44104e-07
2.4915e-09
1.41856e-07
3.46729e-09
1.3842e-07
5.36221e-09
9.23529e-09
1.33429e-07
2.80094e-10
-3.39818e-10
1.13845e-09
-1.36927e-09
2.57844e-09
-2.57895e-09
4.58031e-09
-3.82049e-09
7.10685e-09
-5.00805e-09
1.0111e-08
-6.09786e-09
1.35416e-08
-7.07084e-09
1.73471e-08
-7.92346e-09
2.14789e-08
-8.66129e-09
2.58921e-08
-9.2945e-09
3.05467e-08
-9.83499e-09
3.54074e-08
-1.02946e-08
4.04432e-08
-1.06841e-08
4.56266e-08
-1.10126e-08
5.09336e-08
-1.12877e-08
5.63426e-08
-1.15151e-08
6.18336e-08
-1.16994e-08
6.73886e-08
-1.18438e-08
7.29904e-08
-1.19506e-08
7.86226e-08
-1.20215e-08
8.42696e-08
-1.20578e-08
8.99162e-08
-1.20606e-08
9.55479e-08
-1.20308e-08
1.01151e-07
-1.19694e-08
1.06711e-07
-1.18775e-08
1.12215e-07
-1.17564e-08
1.17652e-07
-1.16075e-08
1.23009e-07
-1.14326e-08
1.28277e-07
-1.12334e-08
1.33444e-07
-1.10118e-08
1.38503e-07
-1.077e-08
1.43445e-07
-1.05102e-08
1.48263e-07
-1.02345e-08
1.52951e-07
-9.94516e-09
1.57504e-07
-9.64444e-09
1.61917e-07
-9.33448e-09
1.66188e-07
-9.01736e-09
1.70313e-07
-8.69506e-09
1.74292e-07
-8.36947e-09
1.78122e-07
-8.04231e-09
1.81804e-07
-7.71519e-09
1.85339e-07
-7.38958e-09
1.88727e-07
-7.06677e-09
1.91969e-07
-6.74796e-09
1.95068e-07
-6.43415e-09
1.98026e-07
-6.12625e-09
2.00845e-07
-5.82501e-09
2.0353e-07
-5.53106e-09
2.06082e-07
-5.24492e-09
2.08506e-07
-4.96702e-09
2.10804e-07
-4.69767e-09
2.12982e-07
-4.4371e-09
2.15042e-07
-4.18546e-09
2.16989e-07
-3.94283e-09
2.18826e-07
-3.70924e-09
2.20557e-07
-3.48464e-09
2.22187e-07
-3.26896e-09
2.23719e-07
-3.06209e-09
2.25157e-07
-2.86386e-09
2.26505e-07
-2.67411e-09
2.27767e-07
-2.49262e-09
2.28946e-07
-2.31918e-09
2.30046e-07
-2.15354e-09
2.31069e-07
-1.99548e-09
2.32021e-07
-1.84473e-09
2.32903e-07
-1.70103e-09
2.33719e-07
-1.56413e-09
2.34473e-07
-1.43376e-09
2.35166e-07
-1.30968e-09
2.35802e-07
-1.19162e-09
2.36383e-07
-1.07933e-09
2.36912e-07
-9.72563e-10
2.37392e-07
-8.71078e-10
2.37825e-07
-7.74646e-10
2.38213e-07
-6.83032e-10
2.38558e-07
-5.96021e-10
2.38863e-07
-5.134e-10
2.39129e-07
-4.34966e-10
2.39359e-07
-3.60523e-10
2.39554e-07
-2.8986e-10
2.39715e-07
-2.22741e-10
2.39846e-07
-1.58982e-10
2.39946e-07
-9.85076e-11
2.40018e-07
-4.11511e-11
2.40064e-07
1.32484e-11
2.40083e-07
6.48462e-11
2.40079e-07
1.13784e-10
2.40051e-07
1.60205e-10
2.40002e-07
2.04244e-10
2.39931e-07
2.46024e-10
2.39841e-07
2.85679e-10
2.39733e-07
3.23319e-10
2.39606e-07
3.59061e-10
2.39463e-07
3.93017e-10
2.39304e-07
4.25289e-10
2.39129e-07
4.55977e-10
2.3894e-07
4.85171e-10
2.38738e-07
5.12958e-10
2.38522e-07
5.3941e-10
2.38293e-07
5.64605e-10
2.38053e-07
5.88606e-10
2.37801e-07
6.11479e-10
2.37539e-07
6.33286e-10
2.37266e-07
6.54086e-10
2.36984e-07
6.73936e-10
2.36692e-07
6.92893e-10
2.36391e-07
7.11008e-10
2.36082e-07
7.28336e-10
2.35764e-07
7.4492e-10
2.35439e-07
7.60809e-10
2.35106e-07
7.76053e-10
2.34766e-07
7.90694e-10
2.34419e-07
8.04769e-10
2.34065e-07
8.18328e-10
2.33705e-07
8.31406e-10
2.33339e-07
8.44039e-10
2.32967e-07
8.56258e-10
2.32589e-07
8.68103e-10
2.32206e-07
8.79595e-10
2.31817e-07
8.90767e-10
2.31423e-07
9.01645e-10
2.31024e-07
9.12255e-10
2.30619e-07
9.22614e-10
2.3021e-07
9.32753e-10
2.29797e-07
9.42679e-10
2.29378e-07
9.52419e-10
2.28955e-07
9.61983e-10
2.28527e-07
9.71383e-10
2.28095e-07
9.80636e-10
2.27659e-07
9.89757e-10
2.27218e-07
9.98754e-10
2.26774e-07
1.00765e-09
2.26325e-07
1.01645e-09
2.25872e-07
1.02518e-09
2.25414e-07
1.03385e-09
2.24953e-07
1.04246e-09
2.24488e-07
1.05104e-09
2.24018e-07
1.05958e-09
2.23545e-07
1.06811e-09
2.23067e-07
1.07662e-09
2.22586e-07
1.08513e-09
2.22101e-07
1.09365e-09
2.21611e-07
1.10219e-09
2.21118e-07
1.11076e-09
2.2062e-07
1.11938e-09
2.20118e-07
1.12805e-09
2.19612e-07
1.13679e-09
2.19102e-07
1.14563e-09
2.18588e-07
1.15458e-09
2.1807e-07
1.16365e-09
2.17547e-07
1.17289e-09
2.1702e-07
1.18233e-09
2.16488e-07
1.19204e-09
2.15951e-07
1.20206e-09
2.1541e-07
1.2125e-09
2.14864e-07
1.22345e-09
2.14312e-07
1.23506e-09
2.13754e-07
1.24751e-09
2.1319e-07
1.26101e-09
2.12619e-07
1.27586e-09
2.12041e-07
1.29244e-09
2.11454e-07
1.31124e-09
2.10857e-07
1.3329e-09
2.10248e-07
1.35826e-09
2.09626e-07
1.38844e-09
2.08987e-07
1.42493e-09
2.08328e-07
1.46972e-09
2.07643e-07
1.52554e-09
2.06927e-07
1.59612e-09
2.0617e-07
1.68668e-09
2.05361e-07
1.80468e-09
2.04481e-07
1.96098e-09
2.03508e-07
2.17193e-09
2.02407e-07
2.46311e-09
2.01125e-07
2.87637e-09
1.99582e-07
3.48521e-09
1.97647e-07
4.42698e-09
1.95132e-07
5.98154e-09
1.91616e-07
8.87828e-09
1.35325e-08
1.87319e-07
3.36374e-10
-6.76192e-10
1.35609e-09
-2.38898e-09
3.04417e-09
-4.26703e-09
5.36104e-09
-6.13736e-09
8.25423e-09
-7.90124e-09
1.16663e-08
-9.50992e-09
1.55392e-08
-1.09438e-08
1.98175e-08
-1.22017e-08
2.44497e-08
-1.32935e-08
2.93892e-08
-1.42341e-08
3.45947e-08
-1.50405e-08
4.00293e-08
-1.57292e-08
4.56606e-08
-1.63154e-08
5.14596e-08
-1.68116e-08
5.74002e-08
-1.72283e-08
6.34587e-08
-1.75737e-08
6.96132e-08
-1.78539e-08
7.58431e-08
-1.80737e-08
8.21289e-08
-1.82363e-08
8.84519e-08
-1.83445e-08
9.47941e-08
-1.84e-08
1.01138e-07
-1.84046e-08
1.07467e-07
-1.836e-08
1.13766e-07
-1.82677e-08
1.20018e-07
-1.81297e-08
1.26209e-07
-1.79479e-08
1.32326e-07
-1.77246e-08
1.38356e-07
-1.74625e-08
1.44287e-07
-1.71644e-08
1.50109e-07
-1.68331e-08
1.55811e-07
-1.64719e-08
1.61384e-07
-1.6084e-08
1.66822e-07
-1.56726e-08
1.72118e-07
-1.5241e-08
1.77266e-07
-1.47926e-08
1.82262e-07
-1.43303e-08
1.87102e-07
-1.38573e-08
1.91784e-07
-1.33765e-08
1.96305e-07
-1.28905e-08
2.00664e-07
-1.24019e-08
2.04862e-07
-1.1913e-08
2.08899e-07
-1.1426e-08
2.12774e-07
-1.09426e-08
2.16491e-07
-1.04648e-08
2.20051e-07
-9.99384e-09
2.23456e-07
-9.53119e-09
2.26709e-07
-9.07794e-09
2.29813e-07
-8.63504e-09
2.32771e-07
-8.20327e-09
2.35587e-07
-7.78329e-09
2.38265e-07
-7.37558e-09
2.40809e-07
-6.98053e-09
2.43222e-07
-6.5984e-09
2.45508e-07
-6.22934e-09
2.47672e-07
-5.87343e-09
2.49718e-07
-5.53066e-09
2.5165e-07
-5.20095e-09
2.53473e-07
-4.88417e-09
2.55189e-07
-4.58013e-09
2.56803e-07
-4.28861e-09
2.5832e-07
-4.00932e-09
2.59743e-07
-3.742e-09
2.61076e-07
-3.48631e-09
2.62322e-07
-3.24193e-09
2.63486e-07
-3.0085e-09
2.6457e-07
-2.78566e-09
2.65579e-07
-2.57307e-09
2.66516e-07
-2.37034e-09
2.67383e-07
-2.17712e-09
2.68185e-07
-1.99304e-09
2.68923e-07
-1.81773e-09
2.69601e-07
-1.65084e-09
2.70222e-07
-1.49203e-09
2.70789e-07
-1.34095e-09
2.71303e-07
-1.19726e-09
2.71768e-07
-1.06064e-09
2.72185e-07
-9.30793e-10
2.72557e-07
-8.07389e-10
2.72887e-07
-6.90144e-10
2.73176e-07
-5.78757e-10
2.73426e-07
-4.72943e-10
2.7364e-07
-3.72421e-10
2.73818e-07
-2.76968e-10
2.73963e-07
-1.86361e-10
2.74077e-07
-1.00351e-10
2.7416e-07
-1.87187e-11
2.74215e-07
5.87726e-11
2.74243e-07
1.32321e-10
2.74245e-07
2.02118e-10
2.74223e-07
2.68355e-10
2.74178e-07
3.31223e-10
2.7411e-07
3.90905e-10
2.74021e-07
4.47577e-10
2.73913e-07
5.01409e-10
2.73786e-07
5.52558e-10
2.73641e-07
6.01186e-10
2.73478e-07
6.47434e-10
2.733e-07
6.91432e-10
2.73106e-07
7.33301e-10
2.72897e-07
7.73166e-10
2.72675e-07
8.11124e-10
2.72439e-07
8.47285e-10
2.72191e-07
8.81747e-10
2.7193e-07
9.14598e-10
2.71658e-07
9.45935e-10
2.71375e-07
9.75841e-10
2.71082e-07
1.0044e-09
2.70778e-07
1.0317e-09
2.70465e-07
1.05781e-09
2.70143e-07
1.0828e-09
2.69813e-07
1.10676e-09
2.69474e-07
1.12974e-09
2.69127e-07
1.15182e-09
2.68772e-07
1.17306e-09
2.6841e-07
1.19351e-09
2.68041e-07
1.21325e-09
2.67665e-07
1.23231e-09
2.67282e-07
1.25076e-09
2.66893e-07
1.26864e-09
2.66498e-07
1.28599e-09
2.66096e-07
1.30285e-09
2.65689e-07
1.31928e-09
2.65277e-07
1.33529e-09
2.64859e-07
1.35093e-09
2.64435e-07
1.36623e-09
2.64006e-07
1.38121e-09
2.63572e-07
1.3959e-09
2.63133e-07
1.41032e-09
2.62689e-07
1.42451e-09