/*--------------------------------*- C++ -*----------------------------------*\
  =========                 |
  \\      /  F ield         | OpenFOAM: The Open Source CFD Toolbox
   \\    /   O peration     | Website:  https://openfoam.org
    \\  /    A nd           | Version:  8
     \\/     M anipulation  |
\*---------------------------------------------------------------------------*/
FoamFile
{
    version     2.0;
    format      ascii;
    class       volVectorField;
    location    "0.08";
    object      U;
}
// * * * * * * * * * * * * * * * * * * * * * * * * * * * * * * * * * * * * * //

dimensions      [0 1 -1 0 0 0 0];

internalField   nonuniform List<vector> 
12225
(
(0.214569 0.0334947 0)
(0.138165 0.00725327 0)
(0.0872622 0.000612798 0)
(0.0714638 0.000227608 0)
(0.0665686 0.000175584 0)
(0.0633095 9.4344e-05 0)
(0.0615606 3.07991e-05 0)
(0.0609983 -1.46647e-05 0)
(0.0612913 -5.60839e-05 0)
(0.0623162 -9.98163e-05 0)
(0.0640589 -0.000151133 0)
(0.0665886 -0.000217417 0)
(0.070084 -0.000311725 0)
(0.0748979 -0.000460169 0)
(0.0817649 -0.000737889 0)
(0.0921679 -0.0013185 0)
(0.112067 -0.00361357 0)
(0.146432 -0.0256239 0)
(0.427668 0.0893177 0)
(0.342366 0.0366772 0)
(0.248576 0.0109402 0)
(0.204733 0.00444852 0)
(0.188117 0.00228253 0)
(0.178447 0.00130658 0)
(0.173027 0.000614856 0)
(0.170874 7.56042e-05 0)
(0.171124 -0.000390833 0)
(0.173381 -0.000853361 0)
(0.177539 -0.00136889 0)
(0.183715 -0.00200534 0)
(0.192276 -0.0028703 0)
(0.203958 -0.00416709 0)
(0.220193 -0.00635727 0)
(0.243556 -0.0106868 0)
(0.280799 -0.0209027 0)
(0.336397 -0.0593607 0)
(0.527881 0.110097 0)
(0.48558 0.0648015 0)
(0.391951 0.0276733 0)
(0.330134 0.0134419 0)
(0.301518 0.00707644 0)
(0.285377 0.00401064 0)
(0.276101 0.00203543 0)
(0.271885 0.000506062 0)
(0.271437 -0.000807559 0)
(0.274088 -0.00207971 0)
(0.279593 -0.00346133 0)
(0.28802 -0.00512264 0)
(0.299767 -0.00731402 0)
(0.315643 -0.0104741 0)
(0.337131 -0.0154837 0)
(0.366521 -0.0243882 0)
(0.407982 -0.0420971 0)
(0.461286 -0.0862222 0)
(0.567755 0.106035 0)
(0.572422 0.0836131 0)
(0.505407 0.0463554 0)
(0.441378 0.0262784 0)
(0.404573 0.0147793 0)
(0.38281 0.00850292 0)
(0.369857 0.00452967 0)
(0.363331 0.00149777 0)
(0.361654 -0.00109271 0)
(0.363932 -0.00355994 0)
(0.369763 -0.00617996 0)
(0.379103 -0.00925214 0)
(0.392239 -0.0131879 0)
(0.409815 -0.018655 0)
(0.432922 -0.02686 0)
(0.462873 -0.0402202 0)
(0.501039 -0.0634391 0)
(0.543585 -0.10739 0)
(0.577842 0.0916143 0)
(0.61434 0.0915612 0)
(0.582696 0.061641 0)
(0.530895 0.0399773 0)
(0.493269 0.0244922 0)
(0.468574 0.014656 0)
(0.45293 0.00816051 0)
(0.444309 0.00320666 0)
(0.441169 -0.00101659 0)
(0.442523 -0.00499192 0)
(0.447847 -0.00912933 0)
(0.45696 -0.0138602 0)
(0.469964 -0.0197389 0)
(0.487201 -0.0275945 0)
(0.509191 -0.038774 0)
(0.536198 -0.0556011 0)
(0.567662 -0.0817595 0)
(0.598327 -0.12308 0)
(0.575396 0.0743759 0)
(0.625656 0.0903374 0)
(0.625396 0.0706079 0)
(0.59374 0.0513819 0)
(0.56303 0.0344288 0)
(0.539679 0.0217831 0)
(0.523418 0.0127275 0)
(0.513598 0.00564845 0)
(0.50923 -0.000431709 0)
(0.509464 -0.00612527 0)
(0.513758 -0.0119551 0)
(0.521825 -0.0184628 0)
(0.533576 -0.0263029 0)
(0.549025 -0.0363736 0)
(0.568146 -0.0499818 0)
(0.590404 -0.0690621 0)
(0.614242 -0.0960984 0)
(0.63455 -0.133779 0)
(0.569397 0.0578472 0)
(0.619767 0.0827448 0)
(0.640874 0.0727846 0)
(0.629928 0.0583424 0)
(0.611043 0.042531 0)
(0.593331 0.0286359 0)
(0.579237 0.0176138 0)
(0.569788 0.00856734 0)
(0.564963 0.00062571 0)
(0.564321 -0.00684241 0)
(0.567453 -0.014412 0)
(0.574054 -0.0226867 0)
(0.58389 -0.0323634 0)
(0.596711 -0.0443207 0)
(0.612086 -0.0596987 0)
(0.629014 -0.0799365 0)
(0.645622 -0.10648 0)
(0.657673 -0.14022 0)
(0.563733 0.0436619 0)
(0.606757 0.0717485 0)
(0.638658 0.069369 0)
(0.643979 0.0601776 0)
(0.637812 0.0472566 0)
(0.62836 0.0338143 0)
(0.618946 0.0218749 0)
(0.611699 0.0114094 0)
(0.607576 0.00188555 0)
(0.606703 -0.00720814 0)
(0.608938 -0.0164049 0)
(0.614058 -0.0263008 0)
(0.621776 -0.0375686 0)
(0.631685 -0.0509949 0)
(0.643128 -0.0674872 0)
(0.654936 -0.0880065 0)
(0.665329 -0.113234 0)
(0.671105 -0.143121 0)
(0.559526 0.0323426 0)
(0.592792 0.0597527 0)
(0.627422 0.0622879 0)
(0.642765 0.0574925 0)
(0.647018 0.0480365 0)
(0.646085 0.0362907 0)
(0.642668 0.0245503 0)
(0.639062 0.0134531 0)
(0.636807 0.00287411 0)
(0.63654 -0.00748086 0)
(0.638421 -0.0180181 0)
(0.642379 -0.02925 0)
(0.648164 -0.0417608 0)
(0.655327 -0.0561924 0)
(0.663154 -0.0732025 0)
(0.670522 -0.0933522 0)
(0.675942 -0.116823 0)
(0.677148 -0.143139 0)
(0.556716 0.023716 0)
(0.580776 0.0482866 0)
(0.613389 0.0534186 0)
(0.633158 0.0516197 0)
(0.644103 0.0452516 0)
(0.650033 0.0357229 0)
(0.652433 0.0250069 0)
(0.653019 0.0140542 0)
(0.653388 0.00306062 0)
(0.654446 -0.00804254 0)
(0.656581 -0.0194895 0)
(0.659873 -0.0316529 0)
(0.664163 -0.0449794 0)
(0.669052 -0.0599375 0)
(0.673891 -0.0769483 0)
(0.677732 -0.0962694 0)
(0.679439 -0.11779 0)
(0.677501 -0.140898 0)
(0.554922 0.0172931 0)
(0.571506 0.0380886 0)
(0.600089 0.0441376 0)
(0.62046 0.044008 0)
(0.63453 0.0398738 0)
(0.644815 0.032439 0)
(0.65172 0.0231199 0)
(0.656101 0.0128698 0)
(0.659206 0.00204596 0)
(0.661937 -0.00925874 0)
(0.66477 -0.0211148 0)
(0.66788 -0.0337361 0)
(0.671197 -0.0474087 0)
(0.674419 -0.0624233 0)
(0.677031 -0.0789966 0)
(0.678311 -0.0971733 0)
(0.677463 -0.116696 0)
(0.673542 -0.136958 0)
(0.55389 0.0129106 0)
(0.565317 0.0300425 0)
(0.589908 0.0359154 0)
(0.608997 0.0364802 0)
(0.623607 0.0336277 0)
(0.635709 0.027678 0)
(0.645139 0.0196032 0)
(0.652048 0.0102241 0)
(0.657222 -8.79205e-05 0)
(0.661411 -0.0111676 0)
(0.665038 -0.0229764 0)
(0.668284 -0.0355963 0)
(0.671132 -0.0491733 0)
(0.673366 -0.0638505 0)
(0.674603 -0.0796944 0)
(0.674328 -0.0966204 0)
(0.672008 -0.114317 0)
(0.667067 -0.132249 0)
(0.553186 0.00955566 0)
(0.560728 0.0231534 0)
(0.581774 0.0282878 0)
(0.598999 0.0290535 0)
(0.612921 0.0269263 0)
(0.625391 0.0220216 0)
(0.636053 0.0149969 0)
(0.644548 0.00650786 0)
(0.651211 -0.00312757 0)
(0.65655 -0.0137332 0)
(0.660882 -0.0251996 0)
(0.664353 -0.0375038 0)
(0.666961 -0.0506749 0)
(0.668564 -0.0647355 0)
(0.668901 -0.0796411 0)
(0.667633 -0.0952277 0)
(0.664438 -0.111174 0)
(0.659 -0.12702 0)
(0.552633 0.00666501 0)
(0.556947 0.0165631 0)
(0.574702 0.0205008 0)
(0.589748 0.0210012 0)
(0.602219 0.019135 0)
(0.614019 0.0149313 0)
(0.624862 0.00879354 0)
(0.634066 0.00120004 0)
(0.641587 -0.00760295 0)
(0.647681 -0.0174632 0)
(0.652526 -0.0282467 0)
(0.656189 -0.0398574 0)
(0.658656 -0.0522291 0)
(0.65984 -0.0652872 0)
(0.659588 -0.0789054 0)
(0.657717 -0.0928751 0)
(0.654074 -0.106895 0)
(0.648548 -0.12059 0)
(0.552207 0.00415125 0)
(0.553975 0.0104251 0)
(0.568892 0.0128167 0)
(0.58176 0.0126462 0)
(0.592441 0.0106184 0)
(0.602913 0.00674707 0)
(0.613084 0.00125355 0)
(0.62214 -0.00554338 0)
(0.629777 -0.0134604 0)
(0.636053 -0.0223834 0)
(0.641028 -0.0321851 0)
(0.644689 -0.0427348 0)
(0.646994 -0.0539093 0)
(0.647887 -0.065575 0)
(0.647301 -0.0775633 0)
(0.645167 -0.0896584 0)
(0.641453 -0.101602 0)
(0.636178 -0.113105 0)
(0.551898 0.00198074 0)
(0.55177 0.0048198 0)
(0.564401 0.00537236 0)
(0.575301 0.00420767 0)
(0.584182 0.00170237 0)
(0.593072 -0.00214502 0)
(0.602079 -0.00722984 0)
(0.61038 -0.0133563 0)
(0.617511 -0.0203975 0)
(0.623416 -0.0282678 0)
(0.628088 -0.0368601 0)
(0.631465 -0.0460441 0)
(0.633484 -0.0556812 0)
(0.634111 -0.0656223 0)
(0.633331 -0.0756984 0)
(0.631151 -0.0857184 0)
(0.627608 -0.0954814 0)
(0.622788 -0.104777 0)
(0.551686 8.51131e-05 0)
(0.550249 -0.000297936 0)
(0.561201 -0.00179111 0)
(0.570497 -0.00420091 0)
(0.57779 -0.00740361 0)
(0.585155 -0.0114395 0)
(0.592856 -0.0162795 0)
(0.600108 -0.0218224 0)
(0.606373 -0.0279877 0)
(0.61154 -0.0347147 0)
(0.615585 -0.0419237 0)
(0.618434 -0.0495102 0)
(0.620024 -0.057356 0)
(0.620337 -0.0653334 0)
(0.619392 -0.0733054 0)
(0.617239 -0.0811277 0)
(0.613948 -0.0886609 0)
(0.609625 -0.0957657 0)
(0.551552 -0.00166136 0)
(0.549343 -0.0051419 0)
(0.559286 -0.00881467 0)
(0.567526 -0.0126432 0)
(0.57366 -0.0166742 0)
(0.57981 -0.0210058 0)
(0.586361 -0.0256679 0)
(0.592576 -0.0306319 0)
(0.597898 -0.0358639 0)
(0.602201 -0.041334 0)
(0.605471 -0.0469994 0)
(0.607652 -0.0528 0)
(0.608698 -0.0586641 0)
(0.608611 -0.064512 0)
(0.607435 -0.0702589 0)
(0.605242 -0.0758174 0)
(0.602116 -0.0811073 0)
(0.598165 -0.0860487 0)
(0.551515 -0.00353244 0)
(0.549181 -0.0103112 0)
(0.559012 -0.0162871 0)
(0.567061 -0.0215804 0)
(0.572814 -0.026431 0)
(0.578412 -0.0310096 0)
(0.58431 -0.0353954 0)
(0.589808 -0.0396297 0)
(0.594353 -0.0437369 0)
(0.597837 -0.0477302 0)
(0.600278 -0.051618 0)
(0.60166 -0.0554047 0)
(0.601976 -0.0590869 0)
(0.601264 -0.0626509 0)
(0.599603 -0.0660741 0)
(0.597087 -0.0693275 0)
(0.593816 -0.0723828 0)
(0.589898 -0.075207 0)
(0.551667 -0.00556781 0)
(0.550322 -0.0158671 0)
(0.561458 -0.0240757 0)
(0.570601 -0.0305407 0)
(0.577126 -0.0358732 0)
(0.583199 -0.0403779 0)
(0.589242 -0.0441749 0)
(0.594522 -0.047378 0)
(0.598522 -0.0500904 0)
(0.601202 -0.0523966 0)
(0.602651 -0.0543823 0)
(0.602932 -0.0561352 0)
(0.602117 -0.0577285 0)
(0.600315 -0.0592117 0)
(0.597658 -0.0606118 0)
(0.594278 -0.0619386 0)
(0.590296 -0.0631912 0)
(0.585828 -0.0643603 0)
(0.551926 -0.00793878 0)
(0.552454 -0.0220731 0)
(0.566146 -0.0321964 0)
(0.577465 -0.0392814 0)
(0.585569 -0.0446077 0)
(0.592668 -0.0485955 0)
(0.599077 -0.0513724 0)
(0.604 -0.053158 0)
(0.607035 -0.0541855 0)
(0.608321 -0.0546544 0)
(0.608116 -0.0547548 0)
(0.60663 -0.0546594 0)
(0.60406 -0.0544984 0)
(0.600608 -0.0543537 0)
(0.596463 -0.0542677 0)
(0.59179 -0.0542548 0)
(0.586716 -0.0543113 0)
(0.581365 -0.0544253 0)
(0.552419 -0.0113368 0)
(0.556449 -0.0302556 0)
(0.574527 -0.0419502 0)
(0.589085 -0.0490845 0)
(0.599055 -0.0538153 0)
(0.606778 -0.0565029 0)
(0.612494 -0.0573792 0)
(0.615564 -0.0569635 0)
(0.616003 -0.0557327 0)
(0.614361 -0.0540441 0)
(0.611182 -0.0521877 0)
(0.606868 -0.0503817 0)
(0.601738 -0.0487585 0)
(0.596054 -0.0473786 0)
(0.590021 -0.0462551 0)
(0.583786 -0.0453726 0)
(0.577448 -0.0446994 0)
(0.571114 -0.0442035 0)
(0.553404 -0.0166078 0)
(0.563721 -0.0414444 0)
(0.58826 -0.0538283 0)
(0.606005 -0.0599307 0)
(0.616163 -0.0627533 0)
(0.621798 -0.0626191 0)
(0.623636 -0.0603145 0)
(0.621829 -0.0569121 0)
(0.617229 -0.0531285 0)
(0.610902 -0.0493825 0)
(0.603617 -0.0459447 0)
(0.595848 -0.0429631 0)
(0.587903 -0.0404804 0)
(0.579986 -0.038475 0)
(0.572217 -0.0368941 0)
(0.564661 -0.0356725 0)
(0.557338 -0.0347425 0)
(0.550308 -0.0340494 0)
(0.555457 -0.0250551 0)
(0.576195 -0.0563824 0)
(0.607686 -0.0672238 0)
(0.624827 -0.0699799 0)
(0.629595 -0.0685292 0)
(0.627562 -0.0637603 0)
(0.620988 -0.0575061 0)
(0.611304 -0.0512347 0)
(0.600108 -0.0455459 0)
(0.588605 -0.0406391 0)
(0.577407 -0.0365739 0)
(0.566767 -0.0333121 0)
(0.556779 -0.0307539 0)
(0.54745 -0.0287824 0)
(0.538742 -0.0272853 0)
(0.530593 -0.0261624 0)
(0.522928 -0.0253268 0)
(0.515758 -0.0247162 0)
(0.559621 -0.0383551 0)
(0.5943 -0.0743132 0)
(0.627272 -0.0790119 0)
(0.633702 -0.0748644 0)
(0.624188 -0.066869 0)
(0.608811 -0.0570419 0)
(0.591299 -0.0478591 0)
(0.573564 -0.0403063 0)
(0.556942 -0.0343096 0)
(0.541989 -0.029622 0)
(0.528707 -0.026024 0)
(0.516909 -0.0233029 0)
(0.50638 -0.0212654 0)
(0.496909 -0.0197532 0)
(0.48831 -0.0186408 0)
(0.480426 -0.0178284 0)
(0.473119 -0.0172372 0)
(0.466372 -0.0168152 0)
(0.566673 -0.0579876 0)
(0.611786 -0.0914005 0)
(0.630648 -0.0831914 0)
(0.61231 -0.06946 0)
(0.582249 -0.0553311 0)
(0.553282 -0.0429185 0)
(0.527659 -0.033686 0)
(0.505705 -0.0271538 0)
(0.487325 -0.0224389 0)
(0.471985 -0.0189936 0)
(0.459041 -0.016482 0)
(0.447956 -0.0146552 0)
(0.438311 -0.0133288 0)
(0.429784 -0.01237 0)
(0.422127 -0.0116808 0)
(0.415155 -0.0111875 0)
(0.408716 -0.0108348 0)
(0.402797 -0.0105889 0)
(0.573084 -0.0830888 0)
(0.609551 -0.100215 0)
(0.592156 -0.073734 0)
(0.541403 -0.0522793 0)
(0.495248 -0.0365957 0)
(0.460605 -0.0260419 0)
(0.434049 -0.0195769 0)
(0.413303 -0.0154431 0)
(0.396942 -0.0125938 0)
(0.38378 -0.0105824 0)
(0.372929 -0.00915762 0)
(0.363771 -0.00814379 0)
(0.355871 -0.00742117 0)
(0.348911 -0.00690775 0)
(0.342665 -0.00654448 0)
(0.336972 -0.00628772 0)
(0.331702 -0.0061068 0)
(0.326855 -0.0059837 0)
(0.56122 -0.103831 0)
(0.555355 -0.09098 0)
(0.489657 -0.0500336 0)
(0.417555 -0.0289371 0)
(0.371335 -0.017869 0)
(0.342028 -0.0121141 0)
(0.320922 -0.00904708 0)
(0.305028 -0.00711247 0)
(0.292792 -0.00578069 0)
(0.283075 -0.00485873 0)
(0.275114 -0.0042166 0)
(0.268408 -0.00376482 0)
(0.262616 -0.00344621 0)
(0.257497 -0.00322217 0)
(0.252882 -0.00306501 0)
(0.248658 -0.00295441 0)
(0.244731 -0.00287754 0)
(0.241111 -0.00282629 0)
(0.486409 -0.0946829 0)
(0.415296 -0.058004 0)
(0.322365 -0.021444 0)
(0.258549 -0.00982391 0)
(0.228399 -0.00554489 0)
(0.210536 -0.00381475 0)
(0.197498 -0.00290607 0)
(0.187762 -0.002284 0)
(0.18033 -0.00185783 0)
(0.174431 -0.00157008 0)
(0.169586 -0.00137125 0)
(0.165487 -0.00123175 0)
(0.161928 -0.00113381 0)
(0.158764 -0.00106516 0)
(0.155897 -0.00101699 0)
(0.15326 -0.000982737 0)
(0.150799 -0.000959423 0)
(0.148526 -0.00094362 0)
(0.266376 -0.0365196 0)
(0.174779 -0.0124599 0)
(0.115956 -0.00169656 0)
(0.0890874 -0.000534449 0)
(0.0797786 -0.000398624 0)
(0.0738541 -0.000311781 0)
(0.0693197 -0.00024188 0)
(0.0659578 -0.000190711 0)
(0.0633934 -0.000158194 0)
(0.061345 -0.000136766 0)
(0.05965 -0.000121557 0)
(0.0582058 -0.000110566 0)
(0.0569429 -0.000102612 0)
(0.0558136 -9.67929e-05 0)
(0.0547852 -9.24838e-05 0)
(0.053836 -8.89884e-05 0)
(0.0529472 -8.73952e-05 0)
(0.0521261 -8.53059e-05 0)
(-5.22919e-05 0.000127382 2.1228e-20)
(-9.01469e-05 0.000157245 -2.65698e-20)
(6.46717e-06 8.89862e-05 0)
(0.000297397 -8.16379e-06 0)
(0.00079738 -0.000106943 0)
(0.00149711 -0.000197673 2.65175e-20)
(0.0023768 -0.000277191 0)
(0.00341428 -0.000345186 0)
(0.00458796 -0.000402685 0)
(0.00587814 -0.00045118 0)
(0.00726763 -0.000492177 -2.62912e-20)
(0.00874172 -0.000526991 0)
(0.010288 -0.000556689 0)
(0.0118959 -0.000582082 0)
(0.0135565 -0.000603752 0)
(0.0152618 -0.000622099 -2.59522e-20)
(0.0170047 -0.000637377 0)
(0.0187789 -0.000649736 0)
(0.020578 -0.000659261 0)
(0.0223964 -0.000665995 0)
(0.0242281 -0.000669968 0)
(0.0260675 -0.000671215 0)
(0.027909 -0.000669783 0)
(0.0297471 -0.000665745 -2.5255e-20)
(0.0315765 -0.000659198 2.51577e-20)
(0.0333919 -0.000650272 -2.50586e-20)
(0.0351884 -0.000639119 -2.49578e-20)
(0.0369611 -0.000625917 0)
(0.0387056 -0.000610865 0)
(0.0404179 -0.000594174 2.46468e-20)
(0.042094 -0.000576065 2.45405e-20)
(0.0437306 -0.000556763 0)
(0.0453248 -0.000536491 0)
(0.046874 -0.000515469 2.42156e-20)
(0.048376 -0.000493906 0)
(0.0498291 -0.000472 0)
(0.0512319 -0.000449934 -2.38829e-20)
(0.0525835 -0.000427876 0)
(0.0538832 -0.000405977 -2.36575e-20)
(0.0551306 -0.000384368 -4.70878e-20)
(0.0563259 -0.000363165 0)
(0.0574692 -0.000342465 0)
(0.0585611 -0.00032235 0)
(0.0596023 -0.000302886 0)
(0.0605937 -0.000284124 0)
(0.0615364 -0.000266101 -4.57009e-20)
(0.0624315 -0.000248845 -4.54661e-20)
(0.0632804 -0.000232372 -4.52303e-20)
(0.0640845 -0.000216687 0)
(0.0648452 -0.00020179 4.47556e-20)
(0.065564 -0.000187673 0)
(0.0662426 -0.000174323 -4.42767e-20)
(0.0668823 -0.000161721 -4.40357e-20)
(0.0674849 -0.000149845 0)
(0.0680518 -0.000138671 0)
(0.0685846 -0.000128172 0)
(0.0690849 -0.00011832 -4.30612e-20)
(0.069554 -0.000109087 0)
(0.0699934 -0.000100441 0)
(0.0704046 -9.23529e-05 0)
(0.0707889 -8.47938e-05 0)
(0.0711477 -7.7734e-05 0)
(0.0714822 -7.11451e-05 0)
(0.0717935 -6.49993e-05 0)
(0.0720831 -5.92696e-05 0)
(0.0723518 -5.39304e-05 4.08048e-20)
(0.0726008 -4.89567e-05 0)
(0.0728312 -4.43247e-05 0)
(0.073044 -4.00114e-05 -4.00331e-20)
(0.07324 -3.59952e-05 -3.97737e-20)
(0.0734201 -3.22544e-05 0)
(0.0735853 -2.87684e-05 3.92517e-20)
(0.0737363 -2.55164e-05 -3.89892e-20)
(0.0738738 -2.2477e-05 0)
(0.0739987 -1.96266e-05 3.84612e-20)
(0.0741115 -1.69377e-05 0)
(0.074213 -1.43742e-05 0)
(0.0743037 -1.18824e-05 -3.76618e-20)
(0.0743843 -9.38463e-06 0)
(0.0744557 -6.92854e-06 3.71243e-20)
(0.0745184 -5.11729e-06 0)
(0.0745722 -4.11222e-06 -3.65828e-20)
(0.0746175 -3.27003e-06 -3.63107e-20)
(0.0746551 -2.33246e-06 -3.60379e-20)
(0.0746856 -1.33116e-06 -7.15285e-20)
(0.0747093 -3.30078e-07 7.09798e-20)
(0.0747266 6.37567e-07 0)
(0.0747379 1.55752e-06 0)
(0.0747434 2.42319e-06 0)
(0.0747436 3.23273e-06 6.87711e-20)
(0.0747387 3.98735e-06 6.82157e-20)
(0.0747289 4.6893e-06 -6.76592e-20)
(0.0747146 5.34076e-06 0)
(0.074696 5.94419e-06 6.65428e-20)
(0.0746733 6.502e-06 6.5983e-20)
(0.0746467 7.01673e-06 6.54223e-20)
(0.0746164 7.49084e-06 0)
(0.0745827 7.92667e-06 0)
(0.0745457 8.32667e-06 0)
(0.0745056 8.69304e-06 6.31712e-20)
(0.0744625 9.02801e-06 0)
(0.0744166 9.33356e-06 0)
(0.0743681 9.61173e-06 -6.14756e-20)
(0.0743171 9.86424e-06 0)
(0.0742636 1.00929e-05 0)
(0.074208 1.02994e-05 -5.97755e-20)
(0.0741501 1.04854e-05 0)
(0.0740903 1.06522e-05 0)
(0.0740285 1.08016e-05 5.80725e-20)
(0.0739648 1.09348e-05 5.75044e-20)
(0.0738994 1.10532e-05 0)
(0.0738323 1.11582e-05 -5.63679e-20)
(0.0737636 1.1251e-05 0)
(0.0736934 1.13327e-05 5.52313e-20)
(0.0736217 1.14043e-05 0)
(0.0735486 1.14667e-05 5.40951e-20)
(0.0734741 1.15208e-05 5.35273e-20)
(0.0733983 1.15672e-05 0)
(0.0733213 1.16066e-05 0)
(0.0732431 1.16394e-05 0)
(0.0731636 1.16662e-05 0)
(0.0730831 1.16878e-05 0)
(0.0730014 1.17047e-05 0)
(0.0729186 1.17174e-05 0)
(0.0728348 1.17263e-05 4.89976e-20)
(0.0727499 1.17318e-05 -4.84337e-20)
(0.0726641 1.17337e-05 0)
(0.0725772 1.17323e-05 0)
(0.0724893 1.17278e-05 0)
(0.0724005 1.17202e-05 0)
(0.0723107 1.17101e-05 -9.12503e-20)
(0.07222 1.16977e-05 0)
(0.0721283 1.16834e-05 8.90152e-20)
(0.0720358 1.16675e-05 -8.79006e-20)
(0.0719423 1.16504e-05 0)
(0.071848 1.1632e-05 0)
(0.0717527 1.16127e-05 0)
(0.0716566 1.15924e-05 8.34627e-20)
(0.0715596 1.1571e-05 8.23588e-20)
(0.0714617 1.15486e-05 0)
(0.0713629 1.15253e-05 8.01582e-20)
(0.0712632 1.15013e-05 7.90617e-20)
(0.0711627 1.14772e-05 -7.79677e-20)
(0.0710613 1.14535e-05 0)
(0.0709589 1.14308e-05 0)
(0.0708557 1.14095e-05 -7.47018e-20)
(0.0707516 1.139e-05 0)
(0.0706465 1.13727e-05 0)
(0.0705404 1.1358e-05 0)
(0.0704334 1.13463e-05 0)
(0.0703253 1.13386e-05 6.93161e-20)
(0.0702163 1.1336e-05 6.82481e-20)
(0.0701061 1.13398e-05 0)
(0.0699948 1.13519e-05 6.61217e-20)
(0.0698822 1.13746e-05 0)
(0.0697684 1.14108e-05 0)
(0.0696531 1.14643e-05 6.29568e-20)
(0.0695363 1.15396e-05 0)
(0.0694177 1.16427e-05 6.0864e-20)
(0.0692972 1.17812e-05 0)
(0.0691745 1.1965e-05 0)
(0.0690491 1.22068e-05 5.77519e-20)
(0.0689206 1.2523e-05 0)
(0.0687884 1.29353e-05 5.56959e-20)
(0.0686516 1.34723e-05 0)
(0.0685093 1.41718e-05 0)
(0.06836 1.50839e-05 0)
(0.0682018 1.62764e-05 -5.16329e-20)
(0.0680324 1.78425e-05 0)
(0.0678484 1.99128e-05 4.96285e-20)
(0.0676452 2.26745e-05 0)
(0.0674166 2.64045e-05 0)
(0.0671535 3.15249e-05 0)
(0.0668428 3.87358e-05 0)
(0.0664647 4.91486e-05 0)
(0.065986 6.55287e-05 0)
(0.065358 9.03072e-05 0)
(0.0644225 0.000159079 -8.37888e-20)
(0.0632874 0.000211748 0)
(0.0588892 0.000924398 0)
(-5.12555e-07 8.97081e-05 -6.66112e-20)
(0.000256471 -0.000291649 8.43266e-20)
(0.000869357 -0.00096847 0)
(0.00188891 -0.00173663 -5.60957e-20)
(0.00330693 -0.00248873 0)
(0.00509817 -0.00317495 -2.79275e-20)
(0.00722787 -0.00377553 5.56833e-20)
(0.0096574 -0.00428736 5.54986e-20)
(0.0123481 -0.00471592 0)
(0.0152639 -0.00507053 5.50775e-20)
(0.0183722 -0.00536147 2.74273e-20)
(0.0216447 -0.00559849 0)
(0.0250567 -0.00579011 0)
(0.0285869 -0.00594335 0)
(0.0322168 -0.00606376 0)
(0.03593 -0.00615559 2.67767e-20)
(0.0397122 -0.00622197 0)
(0.0435499 -0.00626519 -5.29815e-20)
(0.0474307 -0.00628693 0)
(0.0513431 -0.0062884 0)
(0.0552756 -0.00627056 5.21082e-20)
(0.0592175 -0.00623423 0)
(0.063158 -0.00618019 -5.15156e-20)
(0.067087 -0.00610927 2.56117e-20)
(0.0709942 -0.00602234 -2.54626e-20)
(0.0748702 -0.00592042 2.53136e-20)
(0.0787055 -0.00580459 2.5165e-20)
(0.0824916 -0.00567605 0)
(0.08622 -0.00553609 0)
(0.0898832 -0.00538605 -2.47228e-20)
(0.0934742 -0.00522732 2.45729e-20)
(0.0969866 -0.00506131 0)
(0.100415 -0.00488942 0)
(0.103754 -0.00471301 -2.41468e-20)
(0.107 -0.00453339 0)
(0.110149 -0.00435183 0)
(0.113199 -0.00416948 2.37279e-20)
(0.116146 -0.00398743 0)
(0.118991 -0.00380665 -2.34519e-20)
(0.121732 -0.00362802 4.66419e-20)
(0.124368 -0.00345232 0)
(0.1269 -0.00328022 0)
(0.129329 -0.00311229 9.16968e-20)
(0.131655 -0.00294901 9.11796e-20)
(0.13388 -0.00279076 9.0667e-20)
(0.136005 -0.00263785 -4.50765e-20)
(0.138033 -0.00249052 4.48298e-20)
(0.139966 -0.0023489 1.33733e-19)
(0.141806 -0.00221311 -8.86569e-20)
(0.143556 -0.00208319 -4.4084e-20)
(0.145218 -0.00195912 0)
(0.146796 -0.00184085 4.35946e-20)
(0.148292 -0.00172832 -4.33476e-20)
(0.149709 -0.0016214 0)
(0.151049 -0.00151996 0)
(0.152317 -0.00142384 0)
(0.153515 -0.00133288 4.23912e-20)
(0.154645 -0.00124689 0)
(0.15571 -0.00116568 -8.38274e-20)
(0.156714 -0.00108906 0)
(0.157659 -0.00101683 -8.28798e-20)
(0.158547 -0.000948799 0)
(0.159382 -0.000884761 8.19344e-20)
(0.160165 -0.000824527 0)
(0.160899 -0.000767904 -8.09897e-20)
(0.161587 -0.000714708 4.02575e-20)
(0.16223 -0.000664758 0)
(0.162831 -0.000617878 7.95716e-20)
(0.163391 -0.000573901 3.955e-20)
(0.163914 -0.000532664 3.93128e-20)
(0.1644 -0.000494011 0)
(0.164852 -0.000457792 3.88358e-20)
(0.165271 -0.000423864 3.85991e-20)
(0.165659 -0.000392088 0)
(0.166017 -0.000362329 -3.81208e-20)
(0.166347 -0.000334456 7.57605e-20)
(0.166651 -0.000308337 0)
(0.16693 -0.00028384 3.73992e-20)
(0.167185 -0.00026083 0)
(0.167417 -0.000239245 -1.10744e-19)
(0.167628 -0.000219378 0)
(0.167818 -0.000201309 1.09281e-19)
(0.16799 -0.000184592 3.61826e-20)
(0.168143 -0.000168974 -3.59353e-20)
(0.168279 -0.000154345 -7.13763e-20)
(0.168399 -0.000140656 7.08807e-20)
(0.168504 -0.000127862 0)
(0.168594 -0.000115919 0)
(0.16867 -0.000104784 0)
(0.168733 -9.44136e-05 -2.06656e-19)
(0.168784 -8.47636e-05 -6.83831e-20)
(0.168823 -7.57882e-05 6.78792e-20)
(0.168851 -6.7444e-05 0)
(0.168869 -5.96888e-05 6.68662e-20)
(0.168877 -5.24832e-05 -6.6359e-20)
(0.168876 -4.57903e-05 -6.58496e-20)
(0.168866 -3.95766e-05 0)
(0.168847 -3.3812e-05 0)
(0.168821 -2.8469e-05 0)
(0.168787 -2.35217e-05 -6.37987e-20)
(0.168746 -1.89457e-05 0)
(0.168699 -1.47178e-05 1.25531e-19)
(0.168645 -1.08153e-05 1.86742e-19)
(0.168585 -7.21693e-06 -1.23455e-19)
(0.168519 -3.90225e-06 0)
(0.168448 -8.52128e-07 -6.06852e-20)
(0.168372 1.95157e-06 0)
(0.168291 4.52579e-06 -1.19278e-19)
(0.168205 6.88664e-06 5.91139e-20)
(0.168115 9.04935e-06 5.85881e-20)
(0.168021 1.10285e-05 0)
(0.167923 1.2838e-05 1.72602e-19)
(0.167821 1.44911e-05 -1.14011e-19)
(0.167716 1.60004e-05 -5.64765e-20)
(0.167608 1.73773e-05 0)
(0.167496 1.86326e-05 -5.54156e-20)
(0.167381 1.97762e-05 -1.64652e-19)
(0.167263 2.08166e-05 0)
(0.167143 2.17624e-05 -1.07638e-19)
(0.167019 2.2621e-05 -1.06572e-19)
(0.166893 2.34e-05 -1.05504e-19)
(0.166765 2.41067e-05 0)
(0.166634 2.47478e-05 0)
(0.1665 2.53296e-05 0)
(0.166365 2.58571e-05 5.06119e-20)
(0.166227 2.63345e-05 5.00761e-20)
(0.166087 2.67645e-05 0)
(0.165945 2.71498e-05 9.80068e-20)
(0.165801 2.74931e-05 9.69335e-20)
(0.165655 2.77972e-05 0)
(0.165507 2.80655e-05 9.47861e-20)
(0.165357 2.83016e-05 1.87424e-19)
(0.165205 2.85091e-05 -9.26379e-20)
(0.165052 2.86914e-05 -9.15634e-20)
(0.164896 2.88514e-05 0)
(0.164739 2.89914e-05 0)
(0.16458 2.91137e-05 0)
(0.16442 2.92196e-05 -8.72685e-20)
(0.164257 2.93105e-05 8.61951e-20)
(0.164093 2.9388e-05 1.70245e-19)
(0.163927 2.94539e-05 -8.40507e-20)
(0.163759 2.95111e-05 8.29789e-20)
(0.16359 2.95627e-05 8.19083e-20)
(0.163418 2.96126e-05 0)
(0.163245 2.96642e-05 0)
(0.16307 2.97211e-05 -7.87003e-20)
(0.162894 2.9786e-05 0)
(0.162715 2.98618e-05 0)
(0.162535 2.99517e-05 1.51002e-19)
(0.162352 3.006e-05 0)
(0.162168 3.01926e-05 7.33736e-20)
(0.161981 3.0357e-05 -7.2312e-20)
(0.161793 3.05632e-05 0)
(0.161602 3.0824e-05 7.01923e-20)
(0.161409 3.11554e-05 0)
(0.161213 3.15777e-05 0)
(0.161014 3.21163e-05 -6.70244e-20)
(0.160813 3.28039e-05 1.31943e-19)
(0.160608 3.36815e-05 -6.49205e-20)
(0.160399 3.48021e-05 0)
(0.160185 3.62335e-05 0)
(0.159966 3.80637e-05 6.17783e-20)
(0.159742 4.04066e-05 0)
(0.159509 4.34118e-05 5.9694e-20)
(0.159268 4.72755e-05 0)
(0.159015 5.22584e-05 0)
(0.158749 5.87092e-05 0)
(0.158464 6.70998e-05 5.55551e-20)
(0.158157 7.80787e-05 0)
(0.15782 9.25527e-05 -5.35038e-20)
(0.157445 0.000111817 0)
(0.157019 0.000137775 0)
(0.156523 0.000173317 1.00917e-19)
(0.155932 0.00022307 -9.89108e-20)
(0.155208 0.000294763 0)
(0.154285 0.000403323 0)
(0.153079 0.000576288 0)
(0.151321 0.000901329 2.73277e-19)
(0.149233 0.00154866 0)
(0.143048 0.00306788 -1.74584e-19)
(2.60401e-05 -0.000336165 8.68547e-24)
(0.000520384 -0.001652 -1.12265e-19)
(0.00152406 -0.00329583 0)
(0.00305808 -0.00500604 1.11741e-19)
(0.00508147 -0.00663553 0)
(0.00755204 -0.00811191 0)
(0.0104259 -0.0094056 -7.93639e-24)
(0.0136578 -0.0105129 -5.49602e-20)
(0.0172036 -0.0114447 -5.46726e-20)
(0.0210218 -0.0122186 -5.43851e-20)
(0.0250751 -0.0128547 0)
(0.0293304 -0.0133723 0)
(0.0337586 -0.0137888 5.34332e-20)
(0.0383342 -0.0141189 1.06205e-19)
(0.0430345 -0.0143744 -1.05534e-19)
(0.0478395 -0.0145648 0)
(0.052731 -0.0146973 -1.04166e-19)
(0.0576925 -0.0147773 5.17389e-20)
(0.0627082 -0.0148089 0)
(0.0677635 -0.0147952 -1.02081e-19)
(0.0728441 -0.0147388 -5.06922e-20)
(0.0779365 -0.0146418 1.00686e-19)
(0.0830273 -0.0145061 4.99957e-20)
(0.0881039 -0.0143339 0)
(0.0931539 -0.0141271 -9.86127e-20)
(0.0981654 -0.0138881 -9.79307e-20)
(0.103127 -0.0136192 0)
(0.108028 -0.0133231 -9.65852e-20)
(0.112859 -0.0130025 0)
(0.11761 -0.0126602 -9.52686e-20)
(0.122272 -0.0122993 -4.73105e-20)
(0.126838 -0.0119226 0)
(0.131302 -0.0115331 0)
(0.135656 -0.0111336 0)
(0.139897 -0.010727 0)
(0.144018 -0.0103158 0)
(0.148018 -0.00990257 0)
(0.151892 -0.00948957 -9.0343e-20)
(0.15564 -0.0090789 1.3465e-19)
(0.15926 -0.00867246 0)
(0.16275 -0.00827192 0)
(0.166111 -0.00787876 0)
(0.169344 -0.00749426 -1.05268e-24)
(0.172449 -0.00711949 -8.70095e-20)
(0.175428 -0.00675534 -1.72959e-19)
(0.178282 -0.00640254 1.71915e-19)
(0.181013 -0.00606163 8.54405e-20)
(0.183625 -0.00573303 -8.49322e-20)
(0.18612 -0.00541702 1.75633e-24)
(0.188499 -0.00511374 -8.39276e-20)
(0.190768 -0.00482325 0)
(0.192928 -0.00454552 -8.29449e-20)
(0.194984 -0.00428042 1.91798e-24)
(0.196938 -0.00402777 0)
(0.198794 -0.00378733 0)
(0.200555 -0.0035588 8.103e-20)
(0.202225 -0.00334186 0)
(0.203807 -0.00313615 0)
(0.205305 -0.0029413 -7.96264e-20)
(0.206722 -0.0027569 -1.58332e-19)
(0.208061 -0.00258256 7.87077e-20)
(0.209326 -0.00241786 0)
(0.210519 -0.0022624 -7.77926e-20)
(0.211644 -0.00211575 0)
(0.212704 -0.00197751 -7.688e-20)
(0.213701 -0.00184729 -7.64301e-20)
(0.214639 -0.00172468 1.51952e-19)
(0.215521 -0.00160932 7.55231e-20)
(0.216348 -0.00150083 0)
(0.217123 -0.00139885 -1.49245e-19)
(0.21785 -0.00130303 0)
(0.21853 -0.00121306 -2.21164e-19)
(0.219165 -0.00112861 -1.4654e-19)
(0.219758 -0.00104938 -1.45637e-19)
(0.22031 -0.000975072 1.44734e-19)
(0.220825 -0.000905422 -2.15747e-19)
(0.221303 -0.000840172 0)
(0.221747 -0.000779081 0)
(0.222157 -0.000721933 1.41111e-19)
(0.222537 -0.000668497 2.10303e-19)
(0.222887 -0.000618384 0)
(0.223209 -0.000571331 -6.91894e-20)
(0.223505 -0.000527332 0)
(0.223776 -0.000486285 2.04814e-19)
(0.224023 -0.000447995 1.25241e-24)
(0.224247 -0.000412282 -1.18682e-24)
(0.22445 -0.000378982 -1.33756e-19)
(0.224633 -0.000347936 0)
(0.224796 -0.000318998 1.31886e-19)
(0.224942 -0.000292034 9.50774e-25)
(0.22507 -0.00026692 0)
(0.225182 -0.000243539 0)
(0.225279 -0.000221777 0)
(0.225361 -0.000201525 -1.27177e-19)
(0.22543 -0.000182683 0)
(0.225486 -0.000165158 0)
(0.225529 -0.000148864 0)
(0.225561 -0.000133721 0)
(0.225582 -0.00011966 0)
(0.225592 -0.000106612 -1.21452e-19)
(0.225593 -9.45157e-05 0)
(0.225584 -8.33117e-05 -1.19526e-19)
(0.225567 -7.29436e-05 -1.1856e-19)
(0.225542 -6.33583e-05 1.17591e-19)
(0.225508 -5.45047e-05 0)
(0.225467 -4.63349e-05 1.15648e-19)
(0.22542 -3.88032e-05 0)
(0.225365 -3.18665e-05 1.13696e-19)
(0.225305 -2.54838e-05 -1.12717e-19)
(0.225238 -1.96164e-05 -3.35209e-19)
(0.225166 -1.4227e-05 0)
(0.225089 -9.28037e-06 -3.29307e-19)
(0.225006 -4.74299e-06 -1.08782e-19)
(0.224919 -5.8334e-07 0)
(0.224827 3.22823e-06 -2.13609e-19)
(0.224731 6.71904e-06 -2.11626e-19)
(0.224631 9.91463e-06 3.1446e-19)
(0.224527 1.28382e-05 0)
(0.224419 1.55116e-05 1.0283e-19)
(0.224308 1.79545e-05 1.01832e-19)
(0.224194 2.01858e-05 3.025e-19)
(0.224076 2.22227e-05 0)
(0.223955 2.40816e-05 0)
(0.223831 2.57769e-05 0)
(0.223704 2.73216e-05 9.68267e-20)
(0.223574 2.87267e-05 0)
(0.223442 3.00017e-05 0)
(0.223307 3.11556e-05 -9.38115e-20)
(0.22317 3.21969e-05 -9.28047e-20)
(0.22303 3.31344e-05 0)
(0.222888 3.39773e-05 0)
(0.222744 3.47347e-05 -1.79561e-19)
(0.222597 3.54159e-05 0)
(0.222448 3.60294e-05 1.75524e-19)
(0.222297 3.65828e-05 1.73504e-19)
(0.222144 3.70831e-05 0)
(0.221989 3.75364e-05 0)
(0.221831 3.79479e-05 -1.67441e-19)
(0.221672 3.83224e-05 -2.11349e-25)
(0.221511 3.86648e-05 -2.0811e-25)
(0.221347 3.89799e-05 0)
(0.221182 3.92733e-05 -3.18714e-19)
(0.221014 3.9551e-05 0)
(0.220845 3.98196e-05 0)
(0.220673 4.00856e-05 0)
(0.220499 4.03553e-05 1.51279e-19)
(0.220324 4.0635e-05 0)
(0.220146 4.09314e-05 -2.9449e-19)
(0.219966 4.12525e-05 -1.4523e-19)
(0.219784 4.16085e-05 0)
(0.219599 4.20127e-05 -1.41203e-19)
(0.219412 4.24823e-05 0)
(0.219223 4.30392e-05 0)
(0.219031 4.37116e-05 -4.05521e-19)
(0.218836 4.45343e-05 2.66336e-19)
(0.218639 4.55516e-05 0)
(0.218438 4.68189e-05 2.58324e-19)
(0.218233 4.8407e-05 -1.27163e-19)
(0.218025 5.04055e-05 0)
(0.217812 5.29294e-05 0)
(0.217594 5.6126e-05 0)
(0.21737 6.01862e-05 -3.57569e-19)
(0.217138 6.53576e-05 0)
(0.216897 7.19638e-05 -1.15221e-19)
(0.216646 8.04301e-05 0)
(0.216381 9.13204e-05 0)
(0.216099 0.000105389 0)
(0.215797 0.000123657 0)
(0.215466 0.000147521 0)
(0.215101 0.000178933 0)
(0.214689 0.000220662 -2.02925e-19)
(0.214217 0.000276756 0)