/*--------------------------------*- C++ -*----------------------------------*\
  =========                 |
  \\      /  F ield         | OpenFOAM: The Open Source CFD Toolbox
   \\    /   O peration     | Website:  https://openfoam.org
    \\  /    A nd           | Version:  8
     \\/     M anipulation  |
\*---------------------------------------------------------------------------*/
FoamFile
{
    version     2.0;
    format      ascii;
    class       volScalarField;
    location    "0.9";
    object      p;
}
// * * * * * * * * * * * * * * * * * * * * * * * * * * * * * * * * * * * * * //

dimensions      [0 2 -2 0 0 0 0];

internalField   nonuniform List<scalar> 
12225
(
-0.00181888
-0.00179399
-0.0017696
-0.00175097
-0.00174263
-0.00174657
-0.00176455
-0.00179822
-0.00184954
-0.00192108
-0.00201653
-0.00214169
-0.0023062
-0.00252718
-0.00283622
-0.00329226
-0.00406334
-0.0058186
-0.00181866
-0.00179642
-0.00177454
-0.00175814
-0.00175181
-0.0017576
-0.00177732
-0.00181265
-0.00186555
-0.00193856
-0.00203532
-0.00216139
-0.0023258
-0.00254386
-0.00284163
-0.00326357
-0.00389668
-0.00507422
-0.00181942
-0.00179959
-0.00178047
-0.00176664
-0.00176263
-0.00177054
-0.00179222
-0.00182936
-0.00188388
-0.00195824
-0.00205587
-0.0021819
-0.0023442
-0.00255519
-0.00283356
-0.00320471
-0.00368074
-0.00441623
-0.00182138
-0.00180314
-0.00178634
-0.00177484
-0.00177296
-0.00178281
-0.00180621
-0.00184482
-0.00190048
-0.00197548
-0.00207288
-0.00219704
-0.00235424
-0.00255333
-0.00280525
-0.00311932
-0.00347276
-0.003934
-0.00182443
-0.00180707
-0.00179214
-0.0017827
-0.00178274
-0.00179429
-0.00181914
-0.00185885
-0.00191513
-0.00198998
-0.00208596
-0.00220643
-0.00235576
-0.00253911
-0.00276054
-0.00301823
-0.00327908
-0.00356575
-0.00182838
-0.00181136
-0.0017979
-0.0017903
-0.00179205
-0.0018051
-0.00183111
-0.00187155
-0.00192791
-0.00200183
-0.00209523
-0.00221035
-0.00234957
-0.00251464
-0.00270433
-0.00291001
-0.00309892
-0.00327148
-0.00183302
-0.00181593
-0.00180355
-0.00179754
-0.00180079
-0.00181508
-0.00184196
-0.00188272
-0.00193859
-0.00201079
-0.00210052
-0.00220887
-0.00233631
-0.00248182
-0.00264056
-0.00280062
-0.00293399
-0.00303343
-0.00183809
-0.0018206
-0.00180896
-0.00180428
-0.00180877
-0.00182404
-0.00185145
-0.00189209
-0.00194689
-0.0020166
-0.00210169
-0.00220213
-0.00231679
-0.00244255
-0.00257257
-0.00269427
-0.00278592
-0.0028401
-0.00184323
-0.00182517
-0.00181396
-0.00181034
-0.00181581
-0.00183177
-0.00185935
-0.00189941
-0.00195257
-0.00201909
-0.00209875
-0.00219051
-0.002292
-0.00239879
-0.00250327
-0.00259385
-0.00265498
-0.00268187
-0.00184802
-0.00182934
-0.00181832
-0.00181552
-0.00182172
-0.00183805
-0.00186543
-0.00190448
-0.00195547
-0.00201822
-0.00209186
-0.00217456
-0.00226311
-0.00235239
-0.00243496
-0.00250109
-0.00254039
-0.00255109
-0.001852
-0.00183274
-0.00182181
-0.00181961
-0.00182627
-0.00184267
-0.00186949
-0.00190711
-0.00195548
-0.002014
-0.0020813
-0.00215495
-0.00223124
-0.00230493
-0.00236925
-0.00241658
-0.00244048
-0.00244169
-0.00185445
-0.0018348
-0.00182391
-0.00182211
-0.00182896
-0.00184515
-0.00187115
-0.00190711
-0.00195275
-0.00200714
-0.00206855
-0.00213423
-0.00220026
-0.00226157
-0.00231223
-0.00234633
-0.00236006
-0.00235586
-0.00185524
-0.00183586
-0.00182501
-0.00182352
-0.00183044
-0.00184623
-0.00187117
-0.00190522
-0.00194787
-0.00199797
-0.00205351
-0.00211158
-0.0021683
-0.002219
-0.00225866
-0.0022829
-0.00228971
-0.00228167
-0.0018536
-0.00183522
-0.00182462
-0.0018234
-0.00183026
-0.00184535
-0.00186878
-0.00190036
-0.00193936
-0.00198445
-0.00203348
-0.00208351
-0.00213087
-0.00217146
-0.00220126
-0.00221722
-0.00221852
-0.00220745
-0.00184783
-0.00183136
-0.00182157
-0.00182069
-0.00182731
-0.00184132
-0.00186272
-0.00189116
-0.00192581
-0.00196522
-0.00200726
-0.0020491
-0.00208744
-0.00211881
-0.00214009
-0.00214922
-0.00214596
-0.00213211
-0.00183551
-0.00182225
-0.00181424
-0.00181392
-0.00182013
-0.00183264
-0.00185136
-0.00187592
-0.00190546
-0.00193856
-0.0019732
-0.00200685
-0.00203662
-0.00205966
-0.00207354
-0.0020768
-0.00206924
-0.00205206
-0.00181379
-0.00180544
-0.00180062
-0.00180132
-0.00180698
-0.00181748
-0.00183277
-0.00185254
-0.00187603
-0.00190198
-0.00192862
-0.00195378
-0.00197503
-0.00198998
-0.00199669
-0.00199392
-0.00198126
-0.00195927
-0.00178041
-0.00177884
-0.00177877
-0.00178104
-0.00178594
-0.00179376
-0.00180462
-0.00181836
-0.00183443
-0.00185183
-0.00186911
-0.00188449
-0.00189594
-0.00190148
-0.00189943
-0.00188862
-0.0018683
-0.00183848
-0.0017366
-0.00174305
-0.00174852
-0.0017523
-0.00175569
-0.00175956
-0.00176429
-0.00176996
-0.00177631
-0.00178266
-0.00178799
-0.0017909
-0.00178981
-0.00178307
-0.00176921
-0.00174696
-0.00171528
-0.00167386
-0.00170396
-0.00171676
-0.00172638
-0.00173086
-0.00173222
-0.00173161
-0.0017295
-0.00172605
-0.00172118
-0.00171447
-0.00170526
-0.00169259
-0.00167534
-0.00165238
-0.00162265
-0.00158529
-0.00153929
-0.00148404
-0.00168812
-0.00170411
-0.00171563
-0.00172021
-0.00172013
-0.00171646
-0.00170958
-0.00169961
-0.00168652
-0.00167001
-0.00164963
-0.0016247
-0.00159447
-0.00155813
-0.001515
-0.00146451
-0.00140599
-0.00133901
-0.00168375
-0.00170088
-0.00171304
-0.00171767
-0.00171685
-0.0017113
-0.00170118
-0.00168651
-0.00166718
-0.00164295
-0.00161345
-0.00157824
-0.00153679
-0.00148864
-0.00143341
-0.00137085
-0.00130067
-0.00122267
-0.00168697
-0.00170389
-0.00171606
-0.00172103
-0.00172027
-0.00171401
-0.00170217
-0.0016846
-0.00166107
-0.00163133
-0.00159505
-0.00155189
-0.00150153
-0.00144373
-0.00137838
-0.00130553
-0.00122524
-0.00113765
-0.00169419
-0.00171022
-0.00172232
-0.00172811
-0.00172818
-0.00172226
-0.00171
-0.00169108
-0.00166515
-0.00163189
-0.00159095
-0.00154207
-0.00148502
-0.00141974
-0.00134629
-0.00126495
-0.00117611
-0.00108025
-0.00170264
-0.00171769
-0.00173007
-0.00173723
-0.00173878
-0.00173399
-0.0017223
-0.00170323
-0.00167631
-0.00164113
-0.00159731
-0.00154457
-0.00148275
-0.00141187
-0.00133213
-0.00124395
-0.00114798
-0.001045
-0.00171049
-0.00172493
-0.00173816
-0.0017472
-0.0017507
-0.00174761
-0.00173718
-0.0017188
-0.00169192
-0.00165602
-0.00161066
-0.00155553
-0.00149047
-0.00141553
-0.001331
-0.00123738
-0.00113546
-0.00102635
-0.00171668
-0.0017312
-0.00174598
-0.00175732
-0.0017631
-0.00176204
-0.00175329
-0.00173617
-0.00171003
-0.00167427
-0.00162836
-0.00157194
-0.00150481
-0.00142702
-0.00133886
-0.00124092
-0.00113405
-0.00101957
-0.00172072
-0.00173627
-0.00175335
-0.00176733
-0.00177561
-0.0017768
-0.00177003
-0.00175454
-0.00172964
-0.00169463
-0.00164891
-0.00159201
-0.00152369
-0.00144395
-0.00135307
-0.00125165
-0.00114059
-0.00102129
-0.00172249
-0.00174018
-0.00176019
-0.00177707
-0.00178795
-0.0017915
-0.00178686
-0.00177326
-0.00174994
-0.00171612
-0.00167111
-0.00161436
-0.00154551
-0.00146451
-0.00137161
-0.00126738
-0.00115272
-0.00102907
-0.00172255
-0.00174279
-0.00176549
-0.00178479
-0.00179783
-0.00180333
-0.00180047
-0.00178849
-0.00176658
-0.00173392
-0.00168972
-0.00163335
-0.00156437
-0.00148267
-0.00138845
-0.00128225
-0.00116494
-0.00103799
0.000491341
0.000500325
0.000500893
0.000486991
0.000458549
0.000416483
0.000361746
0.00029538
0.000218487
0.000132162
3.73694e-05
-6.50379e-05
-0.000174339
-0.000289934
-0.000411317
-0.00053804
-0.000669677
-0.000805779
-0.000945833
-0.00108922
-0.00123516
-0.0013827
-0.00153067
-0.00167765
-0.00182197
-0.00196168
-0.00209454
-0.00221806
-0.0023295
-0.00242588
-0.00250405
-0.00256071
-0.00259251
-0.0025961
-0.00256824
-0.00250588
-0.00240628
-0.0022671
-0.00208652
-0.00186337
-0.00159717
-0.00128824
-0.000937786
-0.000547898
-0.000121561
0.000337465
0.000824263
0.00133336
0.00185853
0.00239299
0.0029295
0.00346059
0.0039787
0.00447633
0.00494621
0.00538146
0.0057757
0.00612317
0.00641881
0.00665831
0.00683816
0.00695563
0.00700882
0.00699664
0.00691878
0.00677565
0.00656843
0.00629912
0.00597048
0.00558603
0.00515012
0.00466795
0.00414554
0.00358979
0.00300841
0.00240989
0.00180333
0.00119834
0.000604754
3.23593e-05
-0.000509243
-0.0010114
-0.00146634
-0.00186765
-0.00221057
-0.00249218
-0.00271156
-0.00286977
-0.00296975
-0.00301607
-0.00301465
-0.00297236
-0.00289659
-0.00279485
-0.00267445
-0.00254214
-0.00240399
-0.00226523
-0.00213024
-0.00200258
-0.00188499
-0.00177947
-0.00168725
-0.00160881
-0.00154394
-0.00149176
-0.00145086
-0.00141943
-0.00139544
-0.00137684
-0.00136166
-0.00134816
-0.00133491
-0.0013208
-0.00130505
-0.00128716
-0.00126694
-0.00124441
-0.00121975
-0.00119333
-0.00116556
-0.00113697
-0.00110807
-0.00107936
-0.00105134
-0.00102443
-0.000998961
-0.00097522
-0.00095339
-0.000933576
-0.000915808
-0.000900049
-0.000886204
-0.000874137
-0.000863674
-0.000854625
-0.000846783
-0.000839943
-0.0008339
-0.000828464
-0.000823453
-0.000818705
-0.000814077
-0.00080944
-0.000804686
-0.000799726
-0.000794482
-0.000788896
-0.000782919
-0.000776518
-0.000769677
-0.000762356
-0.000754564
-0.000746299
-0.000737563
-0.000728364
-0.000718713
-0.000708625
-0.000698114
-0.000687196
-0.000675886
-0.000664197
-0.000652138
-0.000639712
-0.00062692
-0.00061375
-0.000600185
-0.000586196
-0.000571748
-0.000556794
-0.000541287
-0.000525164
-0.000508389
-0.000490931
-0.000472778
-0.000453961
-0.00043457
-0.000414921
-0.000396688
-0.000371659
0.000504399
0.000512535
0.000512556
0.000499265
0.000473279
0.00043572
0.000387432
0.000329208
0.000261863
0.000186165
0.000102835
1.24949e-05
-8.43355e-05
-0.000187217
-0.000295775
-0.000409678
-0.000528604
-0.000652203
-0.000780065
-0.000911682
-0.00104641
-0.00118344
-0.00132176
-0.00146013
-0.00159709
-0.00173087
-0.00185947
-0.00198061
-0.00209173
-0.00219005
-0.00227255
-0.00233606
-0.00237731
-0.00239295
-0.00237971
-0.00233445
-0.00225427
-0.00213662
-0.00197945
-0.00178125
-0.00154122
-0.00125933
-0.000936414
-0.000574181
-0.000175215
0.000256919
0.000717888
0.00120237
0.00170435
0.00221722
0.00273393
0.0032471
0.00374924
0.00423287
0.00469073
0.00511591
0.00550198
0.0058431
0.00613414
0.0063707
0.00654919
0.00666681
0.00672156
0.0067122
0.00663834
0.00650039
0.00629964
0.0060381
0.00571855
0.00534456
0.00492055
0.00445176
0.0039443
0.00340513
0.00284202
0.00226346
0.00167855
0.0010968
0.000527916
-1.84756e-05
-0.000533292
-0.00100814
-0.00143586
-0.00181065
-0.00212839
-0.00238685
-0.00258577
-0.00272682
-0.0028134
-0.00285043
-0.00284397
-0.0028008
-0.00272807
-0.00263285
-0.00252187
-0.00240122
-0.00227624
-0.00215147
-0.00203063
-0.00191667
-0.00181188
-0.00171786
-0.00163563
-0.00156556
-0.00150745
-0.00146055
-0.00142365
-0.00139522
-0.00137349
-0.00135666
-0.00134302
-0.00133099
-0.00131927
-0.00130683
-0.00129289
-0.00127697
-0.00125882
-0.00123842
-0.00121589
-0.00119153
-0.00116572
-0.00113891
-0.00111159
-0.00108425
-0.00105734
-0.00103129
-0.00100645
-0.000983103
-0.000961454
-0.000941633
-0.000923697
-0.000907635
-0.000893382
-0.000880826
-0.00086982
-0.000860194
-0.000851764
-0.000844337
-0.000837726
-0.000831745
-0.000826224
-0.000821006
-0.000815948
-0.000810925
-0.000805829
-0.000800566
-0.000795062
-0.000789251
-0.000783086
-0.000776526
-0.00076954
-0.000762122
-0.00075425
-0.000745923
-0.00073714
-0.000727909
-0.000718238
-0.000708138
-0.000697623
-0.000686706
-0.000675401
-0.000663719
-0.000651667
-0.000639252
-0.000626469
-0.000613312
-0.000599762
-0.000585797
-0.000571383
-0.00055648
-0.000541047
-0.000525042
-0.000508428
-0.000491181
-0.000473309
-0.00045487
-0.000435984
-0.000417009
-0.000399583
-0.000375664
0.00058041
0.000582388
0.000576459
0.000559184
0.000531448
0.000494333
0.000448575
0.000394773
0.000333504
0.000265289
0.000190575
0.00010972
2.29996e-05
-6.9379e-05
-0.000167262
-0.000270524
-0.000379045
-0.000492675
-0.000611202
-0.000734318
-0.000861588
-0.000992409
-0.00112598
-0.00126128
-0.00139704
-0.00153168
-0.00166337
-0.00178995
-0.00190896
-0.00201766
-0.00211304
-0.00219184
-0.00225065
-0.00228595
-0.0022942
-0.00227197
-0.00221602
-0.00212342
-0.00199173
-0.00181906
-0.00160424
-0.0013469
-0.00104757
-0.000707663
-0.000329475
8.35205e-05
0.000526998
0.00099571
0.00148365
0.00198415
0.00249009
0.00299399
0.00348823
0.00396522
0.0044176
0.00483832
0.00522089
0.00555938
0.00584862
0.00608417
0.00626242
0.00638058
0.00643665
0.00642942
0.00635844
0.00622414
0.00602784
0.0057716
0.00545819
0.00509123
0.00467517
0.00421532
0.00371787
0.00318989
0.00263927
0.00207465
0.00150529
0.000940822
0.000391069
-0.000134312
-0.000626222
-0.0010764
-0.001478
-0.00182565
-0.0021158
-0.00234694
-0.0025196
-0.0026363
-0.0027013
-0.00272026
-0.00269982
-0.00264718
-0.00256957
-0.00247393
-0.00236659
-0.00225305
-0.00213791
-0.00202487
-0.00191686
-0.00181606
-0.00172411
-0.00164212
-0.00157073
-0.00151014
-0.00146006
-0.00141981
-0.00138832
-0.00136425
-0.00134607
-0.0013322
-0.00132112
-0.00131145
-0.001302
-0.00129182
-0.00128018
-0.00126659
-0.0012508
-0.00123272
-0.00121246
-0.00119025
-0.00116644
-0.00114143
-0.00111569
-0.00108969
-0.00106388
-0.00103867
-0.00101443
-0.000991455
-0.000969971
-0.00095013
-0.000932014
-0.00091564
-0.00090097
-0.000887917
-0.000876358
-0.000866146
-0.000857113
-0.000849085
-0.000841885
-0.000835342
-0.00082929
-0.000823578
-0.000818067
-0.000812635
-0.000807171
-0.000801585
-0.000795796
-0.000789741
-0.000783365
-0.000776629
-0.0007695
-0.00076196
-0.000753991
-0.000745588
-0.000736748
-0.000727475
-0.000717774
-0.000707656
-0.000697131
-0.000686211
-0.000674907
-0.00066323
-0.000651186
-0.00063878
-0.000626009
-0.000612867
-0.000599339
-0.000585405
-0.000571036
-0.0005562
-0.000540861
-0.000524989
-0.000508554
-0.000491549
-0.000473996
-0.000455971
-0.000437617
-0.000419294
-0.000402798
-0.000379491
0.000718859
0.000708905
0.000691203
0.000665389
0.000631982
0.000591558
0.00054459
0.000491486
0.000432569
0.000368079
0.000298172
0.000222913
0.000142285
5.62047e-05
-3.54674e-05
-0.000132897
-0.000236252
-0.000345669
-0.00046122
-0.000582877
-0.000710467
-0.00084364
-0.000981823
-0.00112418
-0.00126959
-0.00141658
-0.00156335
-0.0017077
-0.00184705
-0.00197847
-0.00209865
-0.002204
-0.00229069
-0.00235471
-0.00239202
-0.00239864
-0.00237082
-0.00230514
-0.00219869
-0.00204919
-0.00185515
-0.00161599
-0.00133205
-0.0010046
-0.000636108
-0.00023014
0.000208728
0.000675002
0.00116238
0.00166388
0.00217203
0.00267902
0.00317692
0.00365787
0.00411425
0.00453885
0.00492504
0.00526683
0.00555902
0.00579719
0.00597781
0.00609815
0.00615634
0.00615128
0.00608263
0.00595085
0.00575721
0.00550375
0.00519326
0.00482932
0.00441635
0.00395966
0.0034655
0.00294103
0.0023943
0.00183418
0.00127024
0.000712491
0.000171146
-0.000343723
-0.000822555
-0.0012568
-0.00163933
-0.00196482
-0.00222994
-0.00243361
-0.00257707
-0.00266376
-0.00269903
-0.00268975
-0.0026437
-0.00256909
-0.00247394
-0.00236562
-0.00225054
-0.00213395
-0.0020199
-0.00191134
-0.00181031
-0.00171817
-0.00163575
-0.0015635
-0.00150157
-0.00144981
-0.00140774
-0.00137459
-0.00134929
-0.00133056
-0.00131699
-0.00130712
-0.00129955
-0.00129303
-0.00128645
-0.00127893
-0.0012698
-0.00125858
-0.00124503
-0.00122906
-0.00121075
-0.00119032
-0.0011681
-0.00114449
-0.00111994
-0.00109492
-0.00106988
-0.00104525
-0.00102141
-0.000998655
-0.000977243
-0.00095734
-0.000939047
-0.000922402
-0.000907383
-0.000893924
-0.000881918
-0.000871233
-0.000861715
-0.000853202
-0.000845526
-0.000838523
-0.000832036
-0.000825916
-0.000820028
-0.000814251
-0.000808476
-0.000802611
-0.000796576
-0.000790305
-0.000783743
-0.000776847
-0.000769584
-0.000761931
-0.00075387
-0.000745392
-0.000736493
-0.000727174
-0.000717439
-0.000707297
-0.000696756
-0.000685826
-0.000674518
-0.000662841
-0.0006508
-0.000638401
-0.000625642
-0.000612516
-0.000599013
-0.000585114
-0.000570795
-0.000556031
-0.000540791
-0.000525049
-0.00050879
-0.000492011
-0.000474747
-0.000457083
-0.000439166
-0.00042133
-0.000405315
-0.000382788
0.000901792
0.00087575
0.000841954
0.000804188
0.0007623
0.000716038
0.000665445
0.000610582
0.000551417
0.000487826
0.000419597
0.000346436
0.000267968
0.000183752
9.32965e-05
-3.91788e-06
-0.000108408
-0.000220656
-0.000341066
-0.000469921
-0.000607336
-0.000753201
-0.000907133
-0.00106842
-0.00123598
-0.0014083
-0.00158341
-0.00175886
-0.00193172
-0.00209859
-0.00225561
-0.00239858
-0.00252298
-0.00262412
-0.00269727
-0.00273781
-0.00274136
-0.00270398
-0.00262232
-0.00249382
-0.00231677
-0.00209049
-0.00181531
-0.00149269
-0.00112539
-0.00071738
-0.000273602
0.0002
0.000696635
0.00120882
0.00172859
0.00224765
0.00275767
0.00325039
0.0037179
0.00415278
0.00454823
0.00489822
0.00519754
0.00544187
0.00562777
0.00575268
0.00581488
0.00581339
0.00574802
0.00561929
0.00542844
0.00517753
0.0048693
0.00450721
0.00409559
0.00363969
0.00314571
0.00262086
0.00207331
0.0015122
0.000947442
0.000389548
-0.000150676
-0.000662488
-0.00113563
-0.0015607
-0.00193007
-0.00223782
-0.00248045
-0.00265693
-0.00276893
-0.00282071
-0.0028188
-0.00277147
-0.00268816
-0.00257868
-0.00245248
-0.00231807
-0.00218257
-0.00205142
-0.00192845
-0.00181599
-0.00171524
-0.00162658
-0.00154987
-0.00148472
-0.00143057
-0.00138675
-0.00135241
-0.00132653
-0.00130791
-0.00129523
-0.00128707
-0.001282
-0.0012787
-0.00127596
-0.00127275
-0.00126825
-0.00126182
-0.00125304
-0.00124165
-0.0012276
-0.00121098
-0.00119201
-0.00117103
-0.00114845
-0.00112473
-0.00110036
-0.00107579
-0.00105149
-0.00102782
-0.00100513
-0.000983677
-0.00096364
-0.000945139
-0.000928225
-0.00091289
-0.000899079
-0.000886697
-0.00087562
-0.000865704
-0.000856794
-0.00084873
-0.000841352
-0.000834506
-0.00082805
-0.000821848
-0.000815781
-0.000809743
-0.00080364
-0.000797392
-0.000790931
-0.000784203
-0.000777163
-0.000769776
-0.000762017
-0.000753867
-0.000745316
-0.000736357
-0.00072699
-0.000717217
-0.000707046
-0.000696484
-0.000685539
-0.000674222
-0.00066254
-0.0006505
-0.000638106
-0.000625357
-0.000612249
-0.000598773
-0.000584912
-0.000570649
-0.00055596
-0.000540822
-0.000525215
-0.000509126
-0.000492564
-0.000475564
-0.000458216
-0.00044066
-0.00042319
-0.000407317
-0.000385883
0.00110944
0.0010651
0.00101291
0.000961351
0.000909424
0.000855798
0.00079991
0.000741348
0.000679605
0.000614088
0.000544134
0.000469011
0.000387925
0.000300025
0.000204414
0.000100182
-1.35718e-05
-0.000137692
-0.000272919
-0.000419832
-0.000578786
-0.000749841
-0.000932694
-0.00112661
-0.00133036
-0.00154216
-0.00175966
-0.00197988
-0.00219927
-0.00241369
-0.00261852
-0.00280869
-0.00297887
-0.00312354
-0.00323721
-0.00331458
-0.00335069
-0.00334117
-0.00328233
-0.00317142
-0.0030067
-0.00278754
-0.00251445
-0.00218933
-0.00181543
-0.00139713
-0.000939948
-0.000450412
6.40615e-05
0.00059537
0.00113493
0.0016739
0.0022034
0.00271477
0.00319973
0.0036506
0.00406045
0.00442318
0.00473363
0.00498759
0.00518179
0.00531389
0.00538236
0.00538645
0.00532607
0.00520184
0.00501504
0.00476767
0.00446236
0.00410245
0.00369209
0.00323636
0.00274135
0.00221423
0.00166327
0.00109779
0.000528103
-3.47643e-05
-0.000579308
-0.00109396
-0.00156754
-0.00198978
-0.00235166
-0.00264658
-0.00287033
-0.00302151
-0.00310181
-0.00311595
-0.00307147
-0.00297815
-0.00284726
-0.00269069
-0.00252001
-0.00234558
-0.00217591
-0.00201734
-0.00187393
-0.00174773
-0.00163918
-0.00154764
-0.00147187
-0.0014104
-0.00136174
-0.00132443
-0.00129708
-0.00127823
-0.0012664
-0.0012601
-0.00125781
-0.00125806
-0.00125951
-0.00126099
-0.00126149
-0.00126024
-0.00125663
-0.00125027
-0.00124095
-0.00122863
-0.00121344
-0.00119562
-0.00117554
-0.00115364
-0.00113041
-0.00110635
-0.00108197
-0.00105772
-0.00103402
-0.00101122
-0.000989586
-0.000969325
-0.000950563
-0.000933359
-0.000917714
-0.000903578
-0.000890864
-0.000879451
-0.000869202
-0.000859963
-0.000851578
-0.00084389
-0.00083675
-0.000830014
-0.000823551
-0.000817242
-0.000810979
-0.000804672
-0.000798238
-0.000791611
-0.000784735
-0.000777564
-0.000770062
-0.000762203
-0.000753968
-0.000745344
-0.000736324
-0.000726906
-0.000717093
-0.000706889
-0.000696301
-0.000685337
-0.000674006
-0.000662316
-0.000650273
-0.000637882
-0.000625143
-0.000612053
-0.000598606
-0.000584788
-0.000570584
-0.000555976
-0.000540944
-0.000525473
-0.000509556
-0.000493203
-0.000476453
-0.000459389
-0.000442143
-0.000424967
-0.000409051
-0.00038893
0.00131987
0.00125661
0.00118545
0.00111964
0.00105719
0.000995495
0.000933247
0.000869422
0.000802922
0.000732581
0.0006572
0.000575545
0.000486346
0.000388299
0.000280078
0.000160365
2.78822e-05
-0.000118555
-0.000279974
-0.000457172
-0.000650631
-0.000860436
-0.00108618
-0.0013269
-0.00158098
-0.00184612
-0.00211931
-0.00239681
-0.00267419
-0.0029464
-0.00320785
-0.00345253
-0.00367419
-0.0038665
-0.00402324
-0.00413848
-0.00420679
-0.00422346
-0.00418463
-0.00408749
-0.00393035
-0.00371276
-0.0034357
-0.00310156
-0.00271404
-0.0022781
-0.0017999
-0.00128667
-0.000746533
-0.000188318
0.000378694
0.000945002
0.00150114
0.00203793
0.00254669
0.00301943
0.00344905
0.00382939
0.00415534
0.00442283
0.00462881
0.00477118
0.00484869
0.00486082
0.00480769
0.00469002
0.00450912
0.00426691
0.00396591
0.00360927
0.00320091
0.00274567
0.00224946
0.00171935
0.00116362
0.00059178
1.44476e-05
-0.000556801
-0.00110975
-0.00163191
-0.00211107
-0.00253577
-0.00289586
-0.00318341
-0.00339303
-0.00352254
-0.00357318
-0.00354973
-0.00346033
-0.00331602
-0.00312995
-0.0029163
-0.0026892
-0.00246153
-0.002244
-0.00204457
-0.00186821
-0.00171716
-0.0015914
-0.00148937
-0.00140863
-0.00134643
-0.00130011
-0.00126721
-0.00124551
-0.00123293
-0.00122754
-0.00122754
-0.00123121
-0.00123696
-0.00124338
-0.00124926
-0.00125361
-0.00125566
-0.00125484
-0.00125079
-0.00124334
-0.0012325
-0.00121842
-0.0012014
-0.00118185
-0.00116026
-0.00113715
-0.00111307
-0.00108855
-0.0010641
-0.00104013
-0.00101703
-0.000995086
-0.0009745
-0.000955413
-0.000937887
-0.000921926
-0.000907484
-0.000894472
-0.00088277
-0.000872241
-0.000862732
-0.000854088
-0.000846152
-0.000838775
-0.000831814
-0.000825138
-0.000818629
-0.000812181
-0.000805702
-0.00079911
-0.000792339
-0.000785331
-0.000778042
-0.000770436
-0.000762484
-0.000754167
-0.000745471
-0.00073639
-0.00072692
-0.000717062
-0.000706821
-0.000696203
-0.000685215
-0.000673866
-0.000662164
-0.000650115
-0.000637725
-0.000624995
-0.000611924
-0.000598507
-0.000584734
-0.000570594
-0.00055607
-0.000541149
-0.000525817
-0.000510071
-0.000493922
-0.000477406
-0.000460602
-0.000443627
-0.00042669
-0.00041063
-0.000391939
0.00150981
0.00142848
0.00133922
0.00125982
0.00118715
0.00111727
0.00104797
0.000977508
0.000904088
0.000825893
0.000741121
0.000647985
0.000544704
0.000429502
0.000300624
0.000156361
-4.89772e-06
-0.000184606
-0.000383976
-0.000603889
-0.00084479
-0.00110659
-0.00138856
-0.00168926
-0.00200645
-0.00233707
-0.00267723
-0.00302222
-0.00336661
-0.0037043
-0.00402868
-0.0043328
-0.00460953
-0.00485177
-0.00505264
-0.00520573
-0.00530523
-0.0053462
-0.00532468
-0.00523788
-0.00508425
-0.0048637
-0.00457763
-0.00422889
-0.0038217
-0.00336166
-0.00285563
-0.00231161
-0.00173852
-0.00114598
-0.000544065
5.69753e-05
0.000646988
0.00121619
0.00175541
0.0022563
0.00271153
0.00311486
0.00346121
0.00374666
0.00396841
0.00412463
0.0042144
0.00423749
0.00419425
0.00408556
0.00391277
0.00367772
0.0033828
0.00303093
0.00262577
0.0021719
0.00167498
0.00114192
0.000580965
1.74878e-06
-0.000584799
-0.0011666
-0.00173072
-0.00226378
-0.00275244
-0.00318402
-0.00354709
-0.00383227
-0.00403272
-0.00414508
-0.00416972
-0.00411098
-0.00397718
-0.00378019
-0.00353474
-0.00325728
-0.00296468
-0.0026728
-0.00239521
-0.00214225
-0.00192058
-0.00173324
-0.00158023
-0.00145927
-0.00136678
-0.00129865
-0.0012508
-0.00121952
-0.00120154
-0.00119395
-0.00119419
-0.00119999
-0.00120934
-0.00122043
-0.00123172
-0.00124193
-0.00125003
-0.00125525
-0.00125704
-0.00125506
-0.00124918
-0.00123946
-0.00122611
-0.00120949
-0.00119007
-0.00116839
-0.00114502
-0.00112057
-0.00109562
-0.00107068
-0.00104623
-0.00102265
-0.00100025
-0.000979234
-0.000959755
-0.000941873
-0.000925589
-0.000910852
-0.00089757
-0.000885621
-0.000874862
-0.000865138
-0.00085629
-0.000848162
-0.000840601
-0.000833465
-0.000826622
-0.000819955
-0.000813357
-0.000806736
-0.000800011
-0.000793116
-0.000785995
-0.0007786
-0.000770897
-0.000762858
-0.000754463
-0.000745697
-0.000736554
-0.000727029
-0.000717124
-0.000706842
-0.00069619
-0.000685174
-0.000673803
-0.000662084
-0.000650027
-0.000637635
-0.000624912
-0.000611859
-0.000598473
-0.000584747
-0.000570672
-0.000556237
-0.000541427
-0.000526236
-0.000510658
-0.000494707
-0.000478413
-0.000461846
-0.000445107
-0.000428368
-0.000412106
-0.000394874
0.00165604
0.00155871
0.00145343
0.00136195
0.00127997
0.00120213
0.00112527
0.00104686
0.000964325
0.000875158
0.000776912
0.00066722
0.000543782
0.00040436
0.000246795
6.90436e-05
-0.000130761
-0.000354231
-0.000602625
-0.000876738
-0.00117678
-0.00150228
-0.00185196
-0.00222369
-0.00261439
-0.00302006
-0.0034358
-0.00385582
-0.00427362
-0.00468204
-0.00507351
-0.00544018
-0.00577411
-0.00606753
-0.00631303
-0.00650375
-0.0066336
-0.00669745
-0.00669129
-0.00661233
-0.00645922
-0.00623225
-0.00593314
-0.00556518
-0.00513314
-0.0046433
-0.00410327
-0.00352185
-0.00290883
-0.0022747
-0.00163043
-0.000987138
-0.000355764
0.000253195
0.00082998
0.0013658
0.001853
0.00228522
0.00265739
0.00296573
0.0032077
0.00338179
0.00348741
0.00352469
0.00349428
0.0033972
0.00323491
0.00300919
0.00272228
0.00237688
0.00197637
0.00152502
0.00102822
0.000492705
-7.33531e-05
-0.000660235
-0.00125673
-0.00185027
-0.00242724
-0.00297336
-0.0034742
-0.00391584
-0.00428548
-0.00457229
-0.00476803
-0.00486775
-0.00487068
-0.00478036
-0.00460479
-0.0043562
-0.00405048
-0.00370603
-0.00334239
-0.00297857
-0.00263141
-0.0023143
-0.00203628
-0.00180193
-0.00161181
-0.00146334
-0.00135196
-0.00127216
-0.00121837
-0.00118541
-0.00116872
-0.00116437
-0.00116898
-0.00117968
-0.00119406
-0.00121
-0.00122577
-0.00123997
-0.0012515
-0.00125956
-0.0012636
-0.00126332
-0.00125861
-0.00124959
-0.00123655
-0.0012199
-0.00120018
-0.001178
-0.00115401
-0.00112886
-0.00110316
-0.00107749
-0.00105234
-0.00102811
-0.00100512
-0.000983597
-0.000963669
-0.0009454
-0.000928786
-0.000913766
-0.000900242
-0.000888082
-0.000877136
-0.000867245
-0.000858244
-0.000849971
-0.000842274
-0.000835007
-0.000828038
-0.000821248
-0.000814531
-0.000807794
-0.000800959
-0.000793958
-0.000786735
-0.000779245
-0.000771453
-0.000763331
-0.000754859
-0.000746023
-0.000736816
-0.000727234
-0.000717278
-0.000706951
-0.00069626
-0.000685211
-0.000673813
-0.000662075
-0.000650004
-0.000637608
-0.00062489
-0.000611855
-0.000598499
-0.000584821
-0.000570813
-0.000556465
-0.000541769
-0.000526716
-0.000511304
-0.000495542
-0.000479456
-0.000463103
-0.00044657
-0.000429996
-0.000413504
-0.000397685
0.00173697
0.00162678
0.00150857
0.00140717
0.00131713
0.00123177
0.00114696
0.00105932
0.000965526
0.000862335
0.00074666
0.000615564
0.000466245
0.000296038
0.000102436
-0.000116858
-0.000363862
-0.000640217
-0.000947071
-0.00128496
-0.00165367
-0.00205215
-0.0024784
-0.00292943
-0.00340119
-0.00388866
-0.00438583
-0.00488586
-0.00538119
-0.00586368
-0.00632486
-0.00675603
-0.00714859
-0.00749416
-0.00778483
-0.00801334
-0.00817333
-0.00825948
-0.00826766
-0.0081951
-0.00804059
-0.00780472
-0.00748946
-0.00709851
-0.00663723
-0.00611255
-0.00553285
-0.00490781
-0.00424812
-0.00356527
-0.00287122
-0.00217805
-0.00149762
-0.00084126
-0.00021945
0.000358459
0.000884431
0.00135188
0.0017557
0.00209226
0.00235924
0.00255549
0.00268081
0.0027357
0.00272115
0.00263844
0.00248911
0.00227495
0.00199803
0.00166085
0.00126649
0.000818931
0.000323273
-0.000213961
-0.000784667
-0.00137905
-0.00198562
-0.00259137
-0.00318199
-0.00374234
-0.00425693
-0.00471061
-0.00508927
-0.00538058
-0.00557505
-0.00566602
-0.00565137
-0.00553362
-0.00532009
-0.00502294
-0.00465872
-0.00424733
-0.00381066
-0.00337077
-0.00294792
-0.00255894
-0.00221584
-0.00192542
-0.00168939
-0.00150537
-0.00136811
-0.00127085
-0.00120647
-0.00116818
-0.00115
-0.00114676
-0.00115413
-0.00116848
-0.00118689
-0.00120688
-0.00122647
-0.00124407
-0.0012585
-0.00126889
-0.00127469
-0.0012756
-0.00127158
-0.00126279
-0.00124958
-0.00123245
-0.00121201
-0.00118895
-0.00116398
-0.00113781
-0.00111111
-0.00108449
-0.00105846
-0.00103345
-0.00100977
-0.000987657
-0.000967238
-0.000948565
-0.000931621
-0.000916335
-0.000902595
-0.000890258
-0.000879166
-0.000869149
-0.000860036
-0.000851661
-0.000843866
-0.000836504
-0.000829441
-0.000822556
-0.000815743
-0.000808911
-0.000801981
-0.000794886
-0.000787571
-0.000779993
-0.000772114
-0.00076391
-0.000755361
-0.000746453
-0.000737179
-0.000727536
-0.000717524
-0.000707147
-0.000696411
-0.000685324
-0.000673895
-0.000662132
-0.000650044
-0.00063764
-0.000624925
-0.000611904
-0.000598579
-0.000584947
-0.000571004
-0.000556744
-0.000542159
-0.000527241
-0.000511988
-0.000496405
-0.000480512
-0.000464352
-0.000447997
-0.000431561
-0.000414833
-0.000400318
0.00173458
0.0016155
0.00148821
0.00137951
0.00128294
0.00119064
0.00109759
0.000999593
0.000892576
0.00077261
0.000635996
0.00047926
0.000299148
9.26251e-05
-0.000143086
-0.000410444
-0.000711505
-0.0010478
-0.00142024
-0.00182892
-0.00227308
-0.00275094
-0.00325967
-0.00379532
-0.00435284
-0.00492613
-0.00550817
-0.00609106
-0.00666627
-0.00722479
-0.00775728
-0.00825435
-0.00870672
-0.00910546
-0.00944215
-0.00970915
-0.00989976
-0.0100084
-0.0100308
-0.00996398
-0.00980704
-0.00956059
-0.00922683
-0.00880989
-0.00831565
-0.00775172
-0.00712728
-0.00645287
-0.00574022
-0.00500184
-0.0042508
-0.00350025
-0.00276312
-0.0020517
-0.00137731
-0.000749986
-0.000178268
0.000330954
0.000772484
0.00114276
0.00143972
0.00166257
0.00181152
0.0018875
0.00189189
0.00182627
0.00169232
0.00149187
0.00122686
0.000899587
0.000512872
7.03697e-05
-0.000423081
-0.000961162
-0.00153584
-0.00213725
-0.00275363
-0.00337151
-0.00397592
-0.00455088
-0.00507988
-0.0055466
-0.00593566
-0.00623334
-0.00642879
-0.00651397
-0.00648528
-0.00634406
-0.00609678
-0.0057552
-0.00533606
-0.00486033
-0.00435177
-0.00383513
-0.00333404
-0.00286883
-0.0024549
-0.00210172