/*--------------------------------*- C++ -*----------------------------------*\
  =========                 |
  \\      /  F ield         | OpenFOAM: The Open Source CFD Toolbox
   \\    /   O peration     | Website:  https://openfoam.org
    \\  /    A nd           | Version:  8
     \\/     M anipulation  |
\*---------------------------------------------------------------------------*/
FoamFile
{
    version     2.0;
    format      ascii;
    class       surfaceScalarField;
    location    "0.9";
    object      phi;
}
// * * * * * * * * * * * * * * * * * * * * * * * * * * * * * * * * * * * * * //

dimensions      [0 3 -1 0 0 0 0];

internalField   nonuniform List<scalar> 
24170
(
-2.06482e-12
2.06482e-12
3.83222e-12
-5.89704e-12
1.67579e-11
-1.29257e-11
3.51987e-11
-1.84408e-11
5.80127e-11
-2.2814e-11
8.44724e-11
-2.64597e-11
1.1409e-10
-2.96171e-11
1.46529e-10
-3.24398e-11
1.81575e-10
-3.50453e-11
2.19133e-10
-3.75583e-11
2.59259e-10
-4.0126e-11
3.0216e-10
-4.29011e-11
3.48095e-10
-4.59347e-11
3.96779e-10
-4.86842e-11
4.44176e-10
-4.73969e-11
4.65431e-10
-2.12549e-11
3.75374e-10
9.00569e-11
1.24968e-09
-8.74307e-10
-2.16504e-12
4.22987e-12
1.78552e-11
-2.59173e-11
5.92267e-11
-5.42972e-11
1.17483e-10
-7.6697e-11
1.89279e-10
-9.46097e-11
2.72273e-10
-1.09454e-10
3.648e-10
-1.22144e-10
4.65583e-10
-1.33223e-10
5.73595e-10
-1.43058e-10
6.87983e-10
-1.51947e-10
8.07947e-10
-1.6009e-10
9.32365e-10
-1.67319e-10
1.05864e-09
-1.72215e-10
1.17919e-09
-1.69226e-10
1.26999e-09
-1.38203e-10
1.25393e-09
-5.19095e-12
8.53172e-10
4.90813e-10
2.7681e-09
-6.65243e-10
1.48347e-12
2.7464e-12
3.96805e-11
-6.41143e-11
1.14208e-10
-1.28824e-10
2.17887e-10
-1.80376e-10
3.4509e-10
-2.21813e-10
4.91632e-10
-2.55996e-10
6.54353e-10
-2.84864e-10
8.3063e-10
-3.095e-10
1.01808e-09
-3.30509e-10
1.21428e-09
-3.48148e-10
1.41629e-09
-3.62097e-10
1.61948e-09
-3.70507e-10
1.81462e-09
-3.67355e-10
1.98045e-09
-3.35053e-10
2.06457e-09
-2.22322e-10
1.93576e-09
1.23611e-10
1.26267e-09
1.1639e-09
4.34371e-09
-3.12936e-10
8.75451e-12
-6.00811e-12
6.99536e-11
-1.25313e-10
1.82758e-10
-2.41628e-10
3.37632e-10
-3.3525e-10
5.26595e-10
-4.10776e-10
7.43397e-10
-4.72798e-10
9.83021e-10
-5.24489e-10
1.24101e-09
-5.67489e-10
1.51293e-09
-6.02431e-10
1.79379e-09
-6.29009e-10
2.07699e-09
-6.45296e-10
2.35211e-09
-6.45629e-10
2.60003e-09
-6.15275e-10
2.78229e-09
-5.17304e-10
2.81887e-09
-2.58911e-10
2.54928e-09
3.93205e-10
1.69428e-09
2.0189e-09
5.88792e-09
1.50064e-10
1.97648e-11
-2.57729e-11
1.09102e-10
-2.14651e-10
2.65553e-10
-3.98079e-10
4.77337e-10
-5.47035e-10
7.34063e-10
-6.67503e-10
1.02719e-09
-7.65923e-10
1.34945e-09
-8.46747e-10
1.69397e-09
-9.12013e-10
2.0535e-09
-9.61955e-10
2.41935e-09
-9.94861e-10
2.77975e-09
-1.0057e-09
3.11657e-09
-9.82445e-10
3.39892e-09
-8.97629e-10
3.57147e-09
-6.89854e-10
3.53554e-09
-2.22975e-10
3.13112e-09
7.97619e-10
2.16865e-09
2.98138e-09
7.34647e-09
7.10098e-10
3.4383e-11
-6.01558e-11
1.57161e-10
-3.37429e-10
3.62618e-10
-6.03535e-10
6.36673e-10
-8.21091e-10
9.6645e-10
-9.97279e-10
1.34089e-09
-1.14036e-09
1.75005e-09
-1.25591e-09
2.18405e-09
-1.34602e-09
2.63198e-09
-1.40988e-09
3.08039e-09
-1.44328e-09
3.51109e-09
-1.4364e-09
3.89705e-09
-1.36841e-09
4.19568e-09
-1.19626e-09
4.33864e-09
-8.32809e-10
4.2211e-09
-1.05435e-10
3.70672e-09
1.31199e-09
2.69896e-09
3.98914e-09
8.68378e-09
1.36165e-09
5.23174e-11
-1.12473e-10
2.13642e-10
-4.98754e-10
4.73091e-10
-8.62984e-10
8.14023e-10
-1.16202e-09
1.22096e-09
-1.40422e-09
1.68012e-09
-1.59951e-09
2.17847e-09
-1.75426e-09
2.70253e-09
-1.87009e-09
3.23697e-09
-1.94431e-09
3.76273e-09
-1.96904e-09
4.25441e-09
-1.92808e-09
4.67608e-09
-1.79008e-09
4.9754e-09
-1.49558e-09
5.07725e-09
-9.34658e-10
4.88314e-09
8.86661e-11
4.29409e-09
1.90105e-09
3.29368e-09
4.98955e-09
9.87873e-09
2.09873e-09
7.3053e-11
-1.85526e-10
2.77391e-10
-7.03092e-10
5.94955e-10
-1.18055e-09
1.00609e-09
-1.57315e-09
1.49258e-09
-1.89071e-09
2.03768e-09
-2.14462e-09
2.62497e-09
-2.34154e-09
3.23686e-09
-2.48198e-09
3.85302e-09
-2.56046e-09
4.44831e-09
-2.56433e-09
4.99012e-09
-2.46989e-09
5.43475e-09
-2.23471e-09
5.72366e-09
-1.78449e-09
5.78217e-09
-9.93165e-10
5.52808e-09
3.42754e-10
4.90461e-09
2.52452e-09
3.9563e-09
5.93786e-09
1.09165e-08
2.91851e-09
9.58165e-11
-2.81343e-10
3.46448e-10
-9.53723e-10
7.24756e-10
-1.55886e-09
1.20748e-09
-2.05588e-09
1.7735e-09
-2.45673e-09
2.40299e-09
-2.77411e-09
3.07586e-09
-3.01441e-09
3.77015e-09
-3.17626e-09
4.46028e-09
-3.25059e-09
5.1151e-09
-3.21915e-09
5.6956e-09
-3.05038e-09
6.15259e-09
-2.6917e-09
6.42581e-09
-2.05772e-09
6.44774e-09
-1.01509e-09
6.15875e-09
6.3174e-10
5.54241e-09
3.14086e-09
4.68448e-09
6.79579e-09
1.17843e-08
3.8167e-09
1.19538e-10
-4.0088e-10
4.1792e-10
-1.25211e-09
8.5733e-10
-1.99827e-09
1.4103e-09
-2.60885e-09
2.05268e-09
-3.0991e-09
2.76148e-09
-3.48292e-09
3.51293e-09
-3.76586e-09
4.28068e-09
-3.94402e-09
5.03415e-09
-4.00406e-09
5.73685e-09
-3.92186e-09
6.34502e-09
-3.65854e-09
6.80702e-09
-3.1537e-09
7.06552e-09
-2.31622e-09
7.0654e-09
-1.01497e-09
6.77209e-09
9.2505e-10
6.20334e-09
3.7096e-09
5.46912e-09
7.53001e-09
1.24687e-08
4.78473e-09
1.42959e-10
-5.43839e-10
4.87885e-10
-1.59703e-09
9.85568e-10
-2.49595e-09
1.60381e-09
-3.2271e-09
2.31532e-09
-3.81061e-09
3.09411e-09
-4.26171e-09
3.91295e-09
-4.5847e-09
4.7415e-09
-4.77257e-09
5.5449e-09
-4.80746e-09
6.28272e-09
-4.65968e-09
6.90869e-09
-4.28451e-09
7.37213e-09
-3.61714e-09
7.62273e-09
-2.56682e-09
7.621e-09
-1.01324e-09
7.35663e-09
1.18941e-09
6.87355e-09
4.19269e-09
6.29265e-09
8.11091e-09
1.29544e-08
5.80691e-09
1.3784e-10
-6.81679e-10
4.61172e-10
-1.92036e-09
9.2118e-10
-2.95596e-09
1.48648e-09
-3.7924e-09
2.13159e-09
-4.45572e-09
2.83255e-09
-4.96267e-09
3.56413e-09
-5.31627e-09
4.29828e-09
-5.50672e-09
5.00324e-09
-5.51243e-09
5.64329e-09
-5.29972e-09
6.17946e-09
-4.82068e-09
6.57217e-09
-4.00985e-09
6.78665e-09
-2.78129e-09
6.80246e-09
-1.02905e-09
6.62724e-09
1.36463e-09
6.31191e-09
4.50803e-09
5.95962e-09
8.4632e-09
1.31984e-08
5.71567e-09
1.73143e-10
-8.54823e-10
5.7458e-10
-2.3218e-09
1.13755e-09
-3.51892e-09
1.8224e-09
-4.47725e-09
2.59776e-09
-5.23108e-09
3.43436e-09
-5.79927e-09
4.30148e-09
-6.18339e-09
5.16525e-09
-6.37049e-09
5.98803e-09
-6.33521e-09
6.72884e-09
-6.04054e-09
7.34539e-09
-5.43723e-09
7.7982e-09
-4.46265e-09
8.05774e-09
-3.04084e-09
8.11493e-09
-1.08624e-09
7.99377e-09
1.48579e-09
7.76241e-09
4.73938e-09
7.53534e-09
8.69027e-09
1.32768e-08
7.45691e-09
2.09622e-10
-1.06445e-09
6.9157e-10
-2.80375e-09
1.35834e-09
-4.1857e-09
2.16093e-09
-5.27984e-09
3.06196e-09
-6.13211e-09
4.02701e-09
-6.76432e-09
5.02037e-09
-7.17675e-09
6.00322e-09
-7.35335e-09
6.93355e-09
-7.26553e-09
7.76758e-09
-6.87457e-09
8.46318e-09
-6.13283e-09
8.98548e-09
-4.98496e-09
9.31505e-09
-3.37041e-09
9.45797e-09
-1.22915e-09
9.45581e-09
1.48795e-09
9.3914e-09
4.80379e-09
9.38474e-09
8.69693e-09
1.30873e-08
9.57423e-09
2.39011e-10
-1.30346e-09
7.84423e-10
-3.34916e-09
1.53012e-09
-4.93139e-09
2.41837e-09
-6.16809e-09
3.40724e-09
-7.12097e-09
4.45898e-09
-7.81606e-09
5.53523e-09
-8.253e-09
6.59525e-09
-8.41337e-09
7.59654e-09
-8.26682e-09
8.49735e-09
-7.77538e-09
9.26121e-09
-6.8967e-09
9.86348e-09
-5.58722e-09
1.02993e-08
-3.80624e-09
1.05919e-08
-1.52179e-09
1.07988e-08
1.28111e-09
1.1012e-08
4.59061e-09
1.135e-08
8.3589e-09
1.24975e-08
1.19398e-08
2.44518e-10
-1.54797e-09
7.98354e-10
-3.90299e-09
1.54781e-09
-5.68084e-09
2.43194e-09
-7.05223e-09
3.40897e-09
-8.09801e-09
4.44275e-09
-8.84983e-09
5.49771e-09
-9.30796e-09
6.53754e-09
-9.45319e-09
7.5263e-09
-9.25559e-09
8.43174e-09
-8.68081e-09
9.23022e-09
-7.69518e-09
9.91302e-09
-6.27002e-09
1.04928e-08
-4.38604e-09
1.1009e-08
-2.038e-09
1.153e-08
7.60195e-10
1.21494e-08
3.97114e-09
1.2977e-08
7.53137e-09
1.1352e-08
1.41225e-08
1.97404e-10
-1.74538e-09
6.39841e-10
-4.34543e-09
1.2324e-09
-6.2734e-09
1.92554e-09
-7.74537e-09
2.68798e-09
-8.86045e-09
3.49471e-09
-9.65657e-09
4.32281e-09
-1.01361e-08
5.15068e-09
-1.02811e-08
5.95948e-09
-1.00644e-08
6.73624e-09
-9.45758e-09
7.4782e-09
-8.43714e-09
8.1974e-09
-6.98921e-09
8.9247e-09
-5.11334e-09
9.712e-09
-2.8253e-09
1.06312e-08
-1.59044e-10
1.17695e-08
2.83291e-09
1.32199e-08
6.08093e-09
9.50166e-09
1.50702e-08
5.58653e-11
-1.80124e-09
1.74564e-10
-4.46413e-09
3.2782e-10
-6.42666e-09
5.04177e-10
-7.92172e-09
7.00336e-10
-9.05661e-09
9.17094e-10
-9.87332e-09
1.15817e-09
-1.03771e-08
1.43045e-09
-1.05533e-08
1.74521e-09
-1.03791e-08
2.12009e-09
-9.83247e-09
2.58144e-09
-8.89849e-09
3.16633e-09
-7.5741e-09
3.92373e-09
-5.87074e-09
4.91398e-09
-3.81555e-09
6.20607e-09
-1.45114e-09
7.87294e-09
1.16604e-09
9.98515e-09
3.96872e-09
6.88304e-09
1.26038e-08
-2.23755e-10
-1.57749e-09
-7.29927e-10
-3.95796e-09
-1.41584e-09
-5.74075e-09
-2.22136e-09
-7.1162e-09
-3.10105e-09
-8.17692e-09
-4.01202e-09
-8.96236e-09
-4.90906e-09
-9.48009e-09
-5.74271e-09
-9.7197e-09
-6.45846e-09
-9.66338e-09
-6.99679e-09
-9.29414e-09
-7.29356e-09
-8.60173e-09
-7.28097e-09
-7.58669e-09
-6.8893e-09
-6.26242e-09
-6.04925e-09
-4.65559e-09
-4.69535e-09
-2.80504e-09
-2.76986e-09
-7.59455e-10
-2.26092e-10
1.42496e-09
3.68901e-09
2.96794e-09
-3.23034e-10
-1.25445e-09
-1.05483e-09
-3.22616e-09
-2.05025e-09
-4.74533e-09
-3.22922e-09
-5.93723e-09
-4.53526e-09
-6.87088e-09
-5.91787e-09
-7.57974e-09
-7.3256e-09
-8.07236e-09
-8.70346e-09
-8.34184e-09
-9.99262e-09
-8.37423e-09
-1.11314e-08
-8.1554e-09
-1.20568e-08
-7.6763e-09
-1.2707e-08
-6.93649e-09
-1.30234e-08
-5.94604e-09
-1.29531e-08
-4.72588e-09
-1.24513e-08
-3.30685e-09
-1.1483e-08
-1.72775e-09
-1.00252e-08
-3.28065e-11
1.7308e-09
-8.067e-09
-3.4467e-10
-9.09784e-10
-1.13096e-09
-2.43987e-09
-2.21106e-09
-3.66523e-09
-3.50474e-09
-4.64355e-09
-4.95541e-09
-5.42021e-09
-6.5128e-09
-6.02236e-09
-8.12599e-09
-6.45917e-09
-9.74083e-09
-6.727e-09
-1.12995e-08
-6.81552e-09
-1.27418e-08
-6.71316e-09
-1.40065e-08
-6.41156e-09
-1.50344e-08
-5.9086e-09
-1.57702e-08
-5.21019e-09
-1.61654e-08
-4.33071e-09
-1.61798e-08
-3.29241e-09
-1.57837e-08
-2.12391e-09
-1.49581e-08
-8.5839e-10
4.6836e-10
-1.36957e-08
-3.06636e-10
-6.03148e-10
-1.01849e-09
-1.72801e-09
-2.01242e-09
-2.6713e-09
-3.2205e-09
-3.43547e-09
-4.59318e-09
-4.04753e-09
-6.08609e-09
-4.52945e-09
-7.65457e-09
-4.89068e-09
-9.2513e-09
-5.13028e-09
-1.08257e-08
-5.24111e-09
-1.23248e-08
-5.21411e-09
-1.36945e-08
-5.04185e-09
-1.4882e-08
-4.72109e-09
-1.58378e-08
-4.25433e-09
-1.65182e-08
-3.65038e-09
-1.68865e-08
-2.92404e-09
-1.69153e-08
-2.09512e-09
-1.65866e-08
-1.18711e-09
-2.26043e-10
-1.58922e-08
-2.41397e-10
-3.61751e-10
-8.19911e-10
-1.1495e-09
-1.64742e-09
-1.84379e-09
-2.67146e-09
-2.41144e-09
-3.85116e-09
-2.86783e-09
-5.14974e-09
-3.23087e-09
-6.53065e-09
-3.50977e-09
-7.95554e-09
-3.70539e-09
-9.38345e-09
-3.8132e-09
-1.07711e-08
-3.82646e-09
-1.2074e-08
-3.73899e-09
-1.32478e-08
-3.54724e-09
-1.42506e-08
-3.25152e-09
-1.50444e-08
-2.8566e-09
-1.55968e-08
-2.37161e-09
-1.58825e-08
-1.80942e-09
-1.58839e-08
-1.18576e-09
-5.18582e-10
-1.55913e-08
-1.71062e-10
-1.90689e-10
-6.04341e-10
-7.16222e-10
-1.24544e-09
-1.20269e-09
-2.05552e-09
-1.60135e-09
-3.00177e-09
-1.92159e-09
-4.05478e-09
-2.17785e-09
-5.18613e-09
-2.37842e-09
-6.36647e-09
-2.52506e-09
-7.56458e-09
-2.61509e-09
-8.74723e-09
-2.64381e-09
-9.87977e-09
-2.60645e-09
-1.09272e-08
-2.49978e-09
-1.18557e-08
-2.32303e-09
-1.26339e-08
-2.07839e-09
-1.32345e-08
-1.77104e-09
-1.36351e-08
-1.40883e-09
-1.38192e-08
-1.00166e-09
-5.61152e-10
-1.37766e-08
-1.08419e-10
-8.22699e-11
-4.10686e-10
-4.13954e-10
-8.78828e-10
-7.34547e-10
-1.4842e-09
-9.9598e-10
-2.20083e-09
-1.20496e-09
-3.00599e-09
-1.37269e-09
-3.87852e-09
-1.50588e-09
-4.79714e-09
-1.60644e-09
-5.73933e-09
-1.67291e-09
-6.68093e-09
-1.70221e-09
-7.59641e-09
-1.69097e-09
-8.45955e-09
-1.63664e-09
-9.24444e-09
-1.53814e-09
-9.92662e-09
-1.39621e-09
-1.04841e-08
-1.21354e-09
-1.08984e-08
-9.94544e-10
-1.1155e-08
-7.45045e-10
-4.71994e-10
-1.12442e-08
-5.93536e-11
-2.29163e-11
-2.55942e-10
-2.17366e-10
-5.79075e-10
-4.11414e-10
-1.00726e-09
-5.67794e-10
-1.52039e-09
-6.91831e-10
-2.1016e-09
-7.91484e-10
-2.73593e-09
-8.71558e-10
-3.40876e-09
-9.33599e-10
-4.10477e-09
-9.76902e-10
-4.80738e-09
-9.99601e-10
-5.49879e-09
-9.99557e-10
-6.16043e-09
-9.75007e-10
-6.77357e-09
-9.24996e-10
-7.32017e-09
-8.49615e-10
-7.78363e-09
-7.50077e-10
-8.14953e-09
-6.28644e-10
-8.40614e-09
-4.88438e-10
-3.33202e-10
-8.54493e-09
-2.52784e-11
2.36206e-12
-1.43356e-10
-9.92882e-11
-3.52529e-10
-2.02241e-10
-6.36566e-10
-2.83757e-10
-9.80608e-10
-3.4779e-10
-1.37286e-09
-3.99232e-10
-1.80342e-09
-4.40997e-10
-2.26294e-09
-4.74077e-10
-2.74168e-09
-4.98165e-10
-3.229e-09
-5.12276e-10
-3.71333e-09
-5.15228e-10
-4.18235e-09
-5.05991e-10
-4.62342e-09
-4.83926e-10
-5.02412e-09
-4.48914e-10
-5.37279e-09
-4.01406e-10
-5.65903e-09
-3.42401e-10
-5.87411e-09
-2.73359e-10
-1.96016e-10
-6.0113e-09
-5.07938e-12
7.44144e-12
-6.87366e-11
-3.5631e-11
-1.923e-10
-7.86778e-11
-3.64001e-10
-1.12056e-10
-5.73802e-10
-1.37989e-10
-8.14218e-10
-1.58816e-10
-1.07932e-09
-1.75893e-10
-1.36371e-09
-1.89691e-10
-1.66177e-09
-2.00102e-10
-1.96734e-09
-2.06712e-10
-2.27355e-09
-2.09009e-10
-2.57302e-09
-2.06529e-10
-2.85799e-09
-1.98955e-10
-3.12073e-09
-1.86176e-10
-3.35382e-09
-1.68308e-10
-3.55053e-09
-1.45691e-10
-3.70504e-09
-1.1885e-10
-8.84164e-11
-3.81264e-09
3.77142e-12
3.67001e-12
-2.47285e-11
-7.13107e-12
-8.60932e-11
-1.73131e-11
-1.73117e-10
-2.50319e-11
-2.80158e-10
-3.0948e-11
-4.03274e-10
-3.56996e-11
-5.39527e-10
-3.96401e-11
-6.86326e-10
-4.28928e-11
-8.40992e-10
-4.54353e-11
-1.00054e-09
-4.71681e-11
-1.16158e-09
-4.7965e-11
-1.3204e-09
-4.77071e-11
-1.47305e-09
-4.63072e-11
-1.6155e-09
-4.37242e-11
-1.74384e-09
-3.99681e-11
-1.85443e-09
-3.5101e-11
-1.94407e-09
-2.92146e-11
-2.24441e-11
-2.01004e-09
3.67001e-12
-3.46106e-12
-2.07741e-11
-4.5806e-11
-7.6754e-11
-1.12454e-10
-1.52094e-10
-1.94987e-10
-2.40422e-10
-2.8759e-10
-3.35555e-10
-3.83262e-10
-4.29569e-10
-4.73293e-10
-5.13261e-10
-5.48362e-10
-5.77577e-10
-6.00021e-10
4.31653e-11
-4.31653e-11
1.46788e-10
-1.03623e-10
2.83499e-10
-1.36711e-10
4.28756e-10
-1.45257e-10
5.63483e-10
-1.34727e-10
6.73435e-10
-1.09952e-10
7.48394e-10
-7.49592e-11
7.81385e-10
-3.29908e-11
7.67857e-10
1.35276e-11
7.05206e-10
6.26512e-11
5.91999e-10
1.13208e-10
4.27629e-10
1.6437e-10
2.11929e-10
2.157e-10
-5.51053e-11
2.67034e-10
-3.73508e-10
3.18403e-10
-7.43464e-10
3.69955e-10
-1.16535e-09
4.21884e-10
-1.63973e-09
4.74386e-10
-2.16734e-09
5.27606e-10
-2.74893e-09
5.81594e-10
-3.38521e-09
6.3628e-10
-4.07666e-09
6.91442e-10
-4.82336e-09
7.467e-10
-5.62486e-09
8.01503e-10
-6.47999e-09
8.55133e-10
-7.3867e-09
9.06709e-10
-8.34191e-09
9.55207e-10
-9.34138e-09
9.99475e-10
-1.03796e-08
1.03826e-09
-1.14499e-08
1.07024e-09
-1.25439e-08
1.09405e-09
-1.36523e-08
1.10833e-09
-1.4764e-08
1.11176e-09
-1.58671e-08
1.10311e-09
-1.69484e-08
1.08129e-09
-1.79938e-08
1.04539e-09
-1.89885e-08
9.94718e-10
-1.99174e-08
9.28845e-10
-2.0765e-08
8.47652e-10
-2.15164e-08
7.51347e-10
-2.21569e-08
6.40482e-10
-2.26728e-08
5.1596e-10
-2.30518e-08
3.7903e-10
-2.32831e-08
2.31275e-10
-2.33579e-08
7.47529e-11
-2.32685e-08
-8.93834e-11
-2.30109e-08
-2.57545e-10
-2.25831e-08
-4.27887e-10
-2.19852e-08
-5.97825e-10
-2.12204e-08
-7.64822e-10
-2.0294e-08
-9.2645e-10
-1.92135e-08
-1.08044e-09
-1.79888e-08
-1.22475e-09
-1.66312e-08
-1.3576e-09
-1.51536e-08
-1.47753e-09
-1.35702e-08
-1.58344e-09
-1.18956e-08
-1.67456e-09
-1.01452e-08
-1.75045e-09
-8.3342e-09
-1.81099e-09
-6.47789e-09
-1.85631e-09
-4.59112e-09
-1.88676e-09
-2.68833e-09
-1.90279e-09
-7.83473e-10
-1.90486e-09
1.11007e-09
-1.89354e-09
2.97942e-09
-1.86935e-09
4.81183e-09
-1.83241e-09
6.59468e-09
-1.78284e-09
8.31539e-09
-1.72071e-09
9.96123e-09
-1.64584e-09
1.15191e-08
-1.55788e-09
1.29755e-08
-1.45641e-09
1.43166e-08
-1.34104e-09
1.5528e-08
-1.21145e-09
1.65956e-08
-1.06759e-09
1.75054e-08
-9.09766e-10
1.82441e-08
-7.3876e-10
1.88001e-08
-5.55943e-10
1.91634e-08
-3.63354e-10
1.93272e-08
-1.63806e-10
1.92875e-08
3.97671e-11
1.90452e-08
2.42295e-10
1.86051e-08
4.40087e-10
1.7977e-08
6.28112e-10
1.71755e-08
8.01468e-10
1.62201e-08
9.55444e-10
1.51342e-08
1.08582e-09
1.3945e-08
1.18918e-09
1.26819e-08
1.26311e-09
1.13755e-08
1.30645e-09
1.00561e-08
1.31935e-09
8.75284e-09
1.30329e-09
7.49192e-09
1.26092e-09
6.29601e-09
1.19591e-09
5.18343e-09
1.11257e-09
4.16781e-09
1.01562e-09
3.258e-09
9.09811e-10
2.45829e-09
7.99706e-10
1.76877e-09
6.89528e-10
1.18571e-09
5.83061e-10
7.02087e-10
4.83619e-10
3.08091e-10
3.93995e-10
-8.2837e-12
3.16375e-10
-2.60485e-10
2.52201e-10
-4.62487e-10
2.02002e-10
-6.27804e-10
1.65318e-10
-7.68574e-10
1.40769e-10
-8.94798e-10
1.26224e-10
-1.01388e-09
1.19086e-10
-1.13051e-09
1.16631e-10
-1.24684e-09
1.16328e-10
-1.36291e-09
1.16071e-10
-1.47722e-09
1.14309e-10
-1.58729e-09
1.10066e-10
-1.69018e-09
1.02893e-10
-1.78295e-09
9.27697e-11
-1.86295e-09
7.99937e-11
-1.92802e-09
6.50757e-11
-1.97667e-09
4.8647e-11
-2.00806e-09
3.13886e-11
-2.02204e-09
1.39827e-11
-2.01906e-09
-2.97676e-12
-2.00017e-09
-1.88933e-11
-1.96683e-09
-3.33379e-11
-1.92087e-09
-4.5962e-11
-1.86434e-09
-5.65269e-11
-1.79944e-09
-6.49055e-11
-1.72837e-09
-7.10723e-11
-1.65328e-09
-7.50909e-11
-1.57618e-09
-7.70991e-11
-1.49888e-09
-7.72916e-11
-1.42298e-09
-7.59027e-11
-1.34979e-09
-7.31894e-11
-1.28038e-09
-6.94157e-11
-1.21554e-09
-6.48408e-11
-1.15583e-09
-5.97075e-11
-1.10159e-09
-5.42358e-11
-1.05297e-09
-4.86179e-11
-1.00996e-09
-4.30155e-11
-9.72399e-10
-3.75598e-11
-9.40046e-10
-3.23527e-11
-9.12578e-10
-2.74689e-11
-8.89618e-10
-2.29593e-11
-8.70764e-10
-1.8854e-11
-8.55598e-10
-1.51664e-11
-8.43702e-10
-1.18961e-11
-8.3467e-10
-9.03212e-12
-8.28114e-10
-6.55603e-12
-8.2367e-10
-4.44394e-12
-8.21e-10
-2.66952e-12
-8.19788e-10
-1.21247e-12
-8.19797e-10
9.43293e-15
-8.2073e-10
9.32803e-13
-8.22389e-10
1.65918e-12
-8.24585e-10
2.19622e-12
-8.27155e-10
2.5694e-12
-8.29959e-10
2.80477e-12
-8.32886e-10
2.92669e-12
-8.35844e-10
2.95837e-12
-8.38766e-10
2.92177e-12
-8.41604e-10
2.8376e-12
-8.44329e-10
2.72494e-12
-8.46929e-10
2.60062e-12
-8.49407e-10
2.47804e-12
-8.51773e-10
2.36569e-12
-8.54038e-10
2.26499e-12
-8.56206e-10
2.16786e-12
-8.5826e-10
2.05413e-12
-8.60149e-10
1.88872e-12
-8.61768e-10
1.61943e-12
-8.62943e-10
1.17456e-12
-8.63424e-10
4.81061e-13
-8.62808e-10
-6.15349e-13
-8.60594e-10
-2.21485e-12
-8.56114e-10
-4.47997e-12
-8.48463e-10
-7.65114e-12
-8.36402e-10
-1.20603e-11
-8.18013e-10
-1.83892e-11
-7.89255e-10
-2.87584e-11
-7.45346e-10
-4.39084e-11
-9.41902e-11
-6.51156e-10
7.37859e-11
-1.16951e-10
2.28014e-10
-2.57851e-10
4.11128e-10
-3.19824e-10
5.82486e-10
-3.16615e-10
7.09163e-10
-2.61404e-10
7.65198e-10
-1.65987e-10
7.30666e-10
-4.04272e-11
5.90664e-10
1.07011e-10
3.34419e-10
2.69772e-10
-4.57744e-11
4.42845e-10
-5.55167e-10
6.226e-10
-1.19734e-09
8.06544e-10
-1.97474e-09
9.93103e-10
-2.88912e-09
1.18141e-09
-3.94179e-09
1.37108e-09
-5.13388e-09
1.56204e-09
-6.46631e-09
1.75432e-09
-7.93981e-09
1.94789e-09
-9.55474e-09
2.14254e-09
-1.13109e-08
2.33773e-09
-1.32071e-08
2.53253e-09
-1.52412e-08
2.72551e-09
-1.74093e-08
2.91476e-09
-1.97056e-08
3.09781e-09
-2.21221e-08
3.27171e-09
-2.46485e-08
3.43306e-09
-2.72713e-08
3.57804e-09
-2.99744e-08
3.70257e-09
-3.27385e-08
3.80235e-09
-3.55413e-08
3.87302e-09
-3.83575e-08
3.91029e-09
-4.11593e-08
3.91007e-09
-4.39161e-08
3.86863e-09
-4.65958e-08
3.78275e-09
-4.91643e-08
3.64983e-09
-5.1587e-08
3.46805e-09
-5.38287e-08
3.23644e-09
-5.58549e-08
2.95504e-09
-5.76321e-08
2.62486e-09
-5.91287e-08
2.24799e-09
-6.03158e-08
1.82757e-09
-6.11676e-08
1.36771e-09
-6.1662e-08
8.7348e-10
-6.17816e-08
3.50815e-10
-6.1513e-08
-1.93783e-10
-6.08489e-08
-7.53561e-10
-5.9786e-08
-1.32038e-09
-5.83271e-08
-1.8868e-09
-5.64797e-08
-2.44523e-09
-5.42562e-08
-2.98832e-09
-5.16735e-08
-3.50917e-09
-4.87525e-08
-4.00147e-09
-4.55175e-08
-4.45969e-09
-4.1996e-08
-4.87915e-09
-3.82174e-08
-5.25613e-09
-3.42129e-08
-5.58793e-09
-3.00147e-08
-5.87279e-09
-2.56552e-08
-6.1099e-09
-2.11669e-08
-6.2993e-09
-1.65815e-08
-6.44169e-09
-1.193e-08
-6.53828e-09
-7.24222e-09
-6.59058e-09
-2.54691e-09
-6.60017e-09
2.12797e-09
-6.56843e-09
6.75501e-09
-6.49638e-09
1.13073e-08
-6.3847e-09
1.57581e-08
-6.2337e-09
2.00805e-08
-6.04307e-09
2.42465e-08
-5.81182e-09
2.8227e-08
-5.53844e-09
3.19917e-08
-5.22106e-09
3.55084e-08
-4.85771e-09
3.87436e-08
-4.44666e-09
4.16627e-08
-3.98675e-09
4.42308e-08
-3.47781e-09
4.6413e-08
-2.92102e-09
4.81764e-08
-2.31934e-09
4.94909e-08
-1.67778e-09
5.03307e-08
-1.00365e-09
5.06769e-08
-3.0647e-10
5.05182e-08
4.01045e-10
4.98534e-08
1.1049e-09
4.86921e-08
1.78942e-09
4.70559e-08
2.4376e-09
4.49791e-08
3.03229e-09
4.25079e-08
3.55705e-09
3.96998e-08
3.99721e-09
3.6622e-08
4.3409e-09
3.33485e-08
4.57997e-09
2.99572e-08
4.71068e-09
2.65264e-08
4.73405e-09
2.31315e-08
4.65583e-09
1.98414e-08
4.48604e-09
1.67158e-08
4.23814e-09
1.38034e-08
3.92802e-09
1.11404e-08
3.57286e-09
8.75004e-09
3.19005e-09
6.6432e-09
2.79637e-09
4.81888e-09
2.40738e-09
3.2655e-09
2.037e-09
1.96241e-09
1.69709e-09
8.81792e-10
1.39699e-09
-9.07698e-12
1.14307e-09
-7.45281e-10
9.38206e-10
-1.36152e-09
7.81559e-10
-1.88957e-09
6.68821e-10
-2.35631e-09
5.92961e-10
-2.78242e-09
5.45197e-10
-3.18196e-09
5.16169e-10
-3.56268e-09
4.97048e-10
-3.92697e-09
4.80363e-10
-4.27314e-09
4.60479e-10
-4.5968e-09
4.33723e-10
-4.89215e-09
3.98247e-10
-5.15312e-09
3.53732e-10
-5.37413e-09
3.01012e-10
-5.55077e-09
2.41717e-10
-5.68007e-09
1.77947e-10
-5.76069e-09
1.12009e-10
-5.79292e-09
4.62123e-11
-5.7786e-09
-1.72979e-11
-5.72088e-09
-7.66198e-11
-5.62402e-09
-1.30196e-10
-5.49313e-09
-1.76853e-10
-5.33386e-09
-2.15799e-10
-5.15213e-09
-2.46628e-10
-4.95392e-09
-2.69289e-10
-4.74497e-09
-2.84041e-10
-4.53066e-09
-2.91405e-10
-4.31586e-09
-2.92096e-10
-4.10479e-09
-2.8697e-10
-3.90102e-09
-2.7696e-10
-3.70741e-09
-2.63026e-10
-3.52614e-09
-2.46108e-10
-3.35876e-09
-2.27091e-10
-3.20622e-09
-2.06778e-10
-3.06896e-09
-1.85875e-10
-2.947e-09
-1.64977e-10
-2.83999e-09
-1.44573e-10
-2.74729e-09
-1.25043e-10
-2.66809e-09
-1.06672e-10
-2.6014e-09
-8.96554e-11
-2.54614e-09
-7.41148e-11
-2.50119e-09
-6.01077e-11
-2.46545e-09
-4.7641e-11
-2.4378e-09
-3.66816e-11
-2.41719e-09
-2.71672e-11
-2.40262e-09
-1.9014e-11
-2.39316e-09
-1.21253e-11
-2.38798e-09
-6.39619e-12
-2.38627e-09
-1.70295e-12
-2.38737e-09
2.03544e-12
-2.39066e-09
4.94713e-12
-2.3956e-09
7.13482e-12
-2.40172e-09
8.69542e-12
-2.40864e-09
9.7244e-12
-2.41603e-09
1.03127e-11
-2.42362e-09
1.05468e-11
-2.4312e-09
1.05084e-11
-2.43864e-09
1.02741e-11
-2.44583e-09
9.91409e-12
-2.45272e-09
9.48913e-12
-2.45928e-09
9.04651e-12
-2.46553e-09
8.61423e-12
-2.47146e-09
8.19344e-12
-2.47704e-09
7.74919e-12
-2.48219e-09
7.20115e-12
-2.48672e-09
6.41392e-12
-2.49029e-09
5.18932e-12
-2.49237e-09
3.25976e-12
-2.49219e-09
3.00094e-13
-2.48867e-09
-4.13685e-12
-2.48037e-09
-1.05166e-11
-2.46539e-09
-1.94533e-11
-2.4413e-09
-3.17395e-11
-2.40484e-09
-4.85266e-11
-2.35131e-09
-7.1921e-11
-2.27359e-09
-1.06474e-10
-2.1587e-09
-1.58795e-10
-2.64765e-10
-1.98813e-09
5.40297e-11
-1.70981e-10
1.46265e-10
-3.50087e-10
2.22085e-10
-3.95644e-10
2.38723e-10
-3.33253e-10
1.61823e-10
-1.84504e-10
-3.61976e-11
3.20333e-11
-3.77196e-10
3.00572e-10
-8.78388e-10
6.08203e-10
-1.5531e-09
9.44484e-10
-2.41158e-09
1.30133e-09
-3.46165e-09
1.67267e-09
-4.70926e-09
2.05415e-09
-6.15892e-09
2.44276e-09
-7.81402e-09
2.83651e-09
-9.67701e-09
3.23408e-09
-1.17495e-08
3.63451e-09
-1.40321e-08
4.03689e-09
-1.65243e-08
4.4401e-09
-1.92243e-08
4.84255e-09
-2.21285e-08
5.24197e-09
-2.52313e-08
5.63533e-09
-2.85245e-08
6.01865e-09
-3.19968e-08
6.38705e-09
-3.56337e-08
6.73472e-09
-3.9417e-08
7.05502e-09
-4.33245e-08
7.34061e-09
-4.73301e-08
7.58362e-09
-5.14034e-08
7.7759e-09
-5.55103e-08
7.9092e-09
-5.96128e-08
7.97553e-09
-6.36698e-08
7.96734e-09
-6.76376e-08
7.87788e-09
-7.14704e-08
7.70142e-09
-7.51212e-08
7.43352e-09
-7.85426e-08
7.07123e-09
-8.16878e-08
6.61327e-09
-8.45115e-08
6.06015e-09
-8.69707e-08
5.41426e-09
-8.90258e-08
4.67987e-09
-9.06409e-08
3.8631e-09
-9.17851e-08
2.97179e-09
-9.24328e-08
2.01538e-09
-9.2564e-08
1.0047e-09
-9.21651e-08
-4.80978e-11
-9.12283e-08
-1.13052e-09
-8.97533e-08
-2.22858e-09
-8.7745e-08
-3.32864e-09
-8.52148e-08
-4.41704e-09
-8.21795e-08
-5.48054e-09
-7.86612e-08
-6.5066e-09
-7.46867e-08
-7.48366e-09
-7.02868e-08
-8.40137e-09
-6.54956e-08
-9.25086e-09
-6.035e-08
-1.00248e-08
-5.48885e-08
-1.07176e-08
-4.9151e-08
-1.13254e-08
-4.31778e-08
-1.1846e-08
-3.70091e-08
-1.22786e-08
-3.06843e-08
-1.26241e-08
-2.42419e-08
-1.28841e-08
-1.77188e-08
-1.30614e-08
-1.11506e-08
-1.31588e-08
-4.57125e-09
-1.31795e-08
1.98628e-09
-1.3126e-08
8.48974e-09
-1.29998e-08
1.49072e-08
-1.28021e-08
2.12067e-08
-1.25332e-08
2.73556e-08
-1.21919e-08
3.33196e-08
-1.17759e-08
3.90627e-08
-1.12815e-08
4.45461e-08
-1.07045e-08
4.97286e-08
-1.00401e-08
5.45657e-08
-9.28383e-09
5.90108e-08
-8.43183e-09
6.30149e-08
-7.48189e-09
6.65279e-08
-6.43401e-09
6.94998e-08
-5.29124e-09
7.18823e-08
-4.0603e-09
7.36308e-08
-2.75219e-09
7.4707e-08
-1.38259e-09
7.50801e-08
2.79496e-11
7.47314e-08
1.45353e-09
7.36557e-08
2.86514e-09
7.18635e-08
4.22978e-09
6.93831e-08
5.51275e-09
6.62611e-08
6.67905e-09
6.25629e-08
7.69539e-09
5.83714e-08
8.53242e-09
5.37844e-08
9.16696e-09
4.89112e-08
9.58383e-09
4.38679e-08
9.77735e-09
3.87718e-08
9.75195e-09
3.37359e-08
9.52195e-09
2.88636e-08
9.11048e-09
2.4244e-08
8.54762e-09
1.99487e-08
7.86812e-09
1.60298e-08
7.10898e-09
1.25188e-08
6.30734e-09
9.42755e-09
5.49864e-09
6.74936e-09
4.7152e-09
4.4615e-09
3.98495e-09
2.52827e-09
3.33022e-09
9.04712e-10
2.76662e-09
-4.59177e-10
2.3021e-09
-1.61414e-09
1.93652e-09
-2.60759e-09
1.66227e-09
-3.48043e-09
1.4658e-09
-4.26501e-09
1.32979e-09
-4.98435e-09
1.23551e-09
-5.6524e-09
1.16509e-09
-6.27529e-09
1.10326e-09
-6.85312e-09
1.0383e-09
-7.38184e-09
9.62445e-10
-7.85517e-09
8.71574e-10
-8.26614e-09
7.64705e-10
-8.60837e-09
6.43246e-10
-8.87693e-09
5.10271e-10
-9.06884e-09
3.69862e-10
-9.18339e-09
2.26559e-10
-9.22211e-09
8.49295e-11
-9.18865e-09
-5.07574e-11
-9.08851e-09
-1.76762e-10
-8.92868e-09
-2.90023e-10
-8.71728e-09
-3.88248e-10
-8.46315e-09
-4.69937e-10
-8.17541e-09
-5.34365e-10
-7.86318e-09
-5.81519e-10
-7.5352e-09
-6.12015e-10
-7.19962e-09
-6.26985e-10
-6.86377e-09
-6.27955e-10
-6.53401e-09
-6.16726e-10
-6.21572e-09
-5.95251e-10
-5.91321e-09
-5.65536e-10
-5.62978e-09
-5.29539e-10
-5.36776e-09
-4.89107e-10
-5.12862e-09
-4.45917e-10
-4.91305e-09
-4.01445e-10
-4.72109e-09
-3.56942e-10
-4.55222e-09
-3.13435e-10
-4.40553e-09
-2.71734e-10
-4.27976e-09
-2.32442e-10
-4.17344e-09
-1.95983e-10
-4.08493e-09
-1.62622e-10
-4.01255e-09
-1.3249e-10
-3.95458e-09
-1.05611e-10
-3.90933e-09
-8.19263e-11
-3.87519e-09
-6.13098e-11
-3.85061e-09
-4.35916e-11
-3.83417e-09
-2.85708e-11
-3.82453e-09
-1.60274e-11
-3.82051e-09
-5.72999e-12
-3.82102e-09
2.54416e-12
-3.8251e-09
9.02971e-12
-3.83191e-09
1.39459e-11
-3.84072e-09
1.7504e-11
-3.8509e-09
1.99062e-11
-3.86193e-09
2.13455e-11
-3.87339e-09
2.20053e-11
-3.88494e-09
2.20587e-11
-3.89634e-09
2.16672e-11
-3.9074e-09
2.09772e-11
-3.91802e-09
2.01143e-11
-3.92815e-09
1.91742e-11
-3.93775e-09
1.82107e-11
-3.94677e-09
1.72191e-11
-3.95514e-09
1.61182e-11
-3.96267e-09
1.473e-11
-3.96902e-09
1.27612e-11
-3.97362e-09
9.78661e-12
-3.9756e-09
5.23927e-12
-3.9737e-09
-1.59275e-12
-3.96625e-09
-1.15869e-11
-3.951e-09
-2.57664e-11
-3.92508e-09
-4.53746e-11
-3.88484e-09
-7.19777e-11
-3.82561e-09
-1.0776e-10
-3.74123e-09
-1.56304e-10
-3.62354e-09
-2.24164e-10
-3.45954e-09
-3.22786e-10
-4.73462e-10
-3.25085e-09
3.15581e-12
-1.74137e-10
-4.05748e-11
-3.06356e-10
-1.75042e-10
-2.61177e-10
-4.3535e-10
-7.29446e-11
-8.49772e-10
2.29917e-10
-1.44118e-09
6.23446e-10
-2.22821e-09
1.08759e-09
-3.2259e-09
1.60589e-09
-4.44655e-09
2.16513e-09
-5.90018e-09
2.75497e-09
-7.59499e-09
3.36748e-09
-9.53758e-09
3.99674e-09
-1.17331e-08
4.63832e-09
-1.41855e-08
5.28884e-09
-1.6897e-08
5.94555e-09
-1.98683e-08
6.60586e-09
-2.30984e-08
7.26696e-09
-2.65838e-08
7.92549e-09
-3.03184e-08
8.57722e-09
-3.42933e-08
9.2168e-09
-3.84956e-08
9.83765e-09
-4.29088e-08
1.04318e-08
-4.75119e-08
1.09902e-08
-5.22794e-08
1.15022e-08
-5.71809e-08
1.19566e-08
-6.21815e-08
1.23412e-08
-6.72413e-08
1.26435e-08
-7.23166e-08
1.28512e-08
-7.73596e-08
1.29522e-08
-8.23195e-08
1.29354e-08
-8.71431e-08
1.2791e-08
-9.17761e-08
1.25109e-08
-9.61635e-08
1.20888e-08
-1.00251e-07
1.15211e-08
-1.03986e-07
1.08065e-08
-1.07319e-07
9.94621e-09
-1.10204e-07
8.94449e-09
-1.12598e-07
7.8081e-09
-1.14464e-07
6.54646e-09
-1.15772e-07
5.17141e-09
-1.16498e-07
3.69696e-09
-1.16621e-07
2.13904e-09
-1.16132e-07
5.15192e-10
-1.15024e-07
-1.15577e-09
-1.133e-07
-2.85442e-09
-1.10968e-07
-4.56078e-09
-1.08042e-07
-6.25509e-09
-1.0454e-07
-7.91808e-09
-1.0049e-07
-9.53132e-09
-9.59187e-08
-1.10776e-08
-9.08609e-08
-1.25414e-08
-8.53532e-08
-1.3909e-08
-7.94353e-08
-1.51688e-08
-7.31484e-08
-1.63116e-08
-6.65355e-08
-1.73306e-08
-5.96395e-08
-1.82214e-08
-5.25035e-08
-1.89819e-08
-4.51697e-08
-1.96124e-08
-3.7679e-08
-2.01148e-08
-3.00706e-08
-2.04925e-08
-2.23818e-08
-2.07501e-08
-1.46482e-08
-2.08924e-08
-6.90337e-09
-2.09243e-08
8.20658e-10
-2.085e-08
8.49292e-09
-2.06721e-08
1.60827e-08
-2.03919e-08
2.35586e-08
-2.00092e-08
3.08886e-08
-1.95219e-08
3.80383e-08
-1.89256e-08
4.4971e-08
-1.82142e-08
5.16465e-08
-1.738e-08
5.80209e-08
-1.64145e-08
6.40461e-08
-1.5309e-08
6.96699e-08
-1.40556e-08
7.48362e-08
-1.26483e-08
7.94861e-08
-1.10839e-08
8.35584e-08
-9.36349e-09
8.69913e-08
-7.49329e-09
8.97248e-08
-5.48566e-09
9.17023e-08
-3.36003e-09
9.28736e-08
-1.14342e-09
9.31983e-08
1.12884e-09
9.26488e-08
3.4147e-09
9.12139e-08
5.66464e-09
8.89021e-08
7.82453e-09
8.57438e-08
9.83736e-09
8.17931e-08
1.16461e-08
7.71285e-08
1.31971e-08
7.18516e-08
1.44438e-08
6.60846e-08
1.53509e-08
5.99653e-08
1.58966e-08
5.36412e-08
1.60761e-08
4.72618e-08
1.59013e-08
4.09713e-08
1.5401e-08
3.49006e-08
1.46183e-08
2.91615e-08
1.36072e-08
2.38419e-08
1.24286e-08
1.90029e-08
1.11463e-08
1.46784e-08
9.82322e-09
1.08757e-08
8.51785e-09
7.57887e-09
7.28178e-09
4.75213e-09
6.15697e-09