/*--------------------------------*- C++ -*----------------------------------*\
  =========                 |
  \\      /  F ield         | OpenFOAM: The Open Source CFD Toolbox
   \\    /   O peration     | Website:  https://openfoam.org
    \\  /    A nd           | Version:  8
     \\/     M anipulation  |
\*---------------------------------------------------------------------------*/
FoamFile
{
    version     2.0;
    format      ascii;
    class       volVectorField;
    location    "0.9";
    object      U;
}
// * * * * * * * * * * * * * * * * * * * * * * * * * * * * * * * * * * * * * //

dimensions      [0 1 -1 0 0 0 0];

internalField   nonuniform List<vector> 
12225
(
(-7.13125e-06 9.68768e-07 0)
(-3.40337e-06 -5.38216e-07 0)
(2.7433e-05 -1.37119e-06 0)
(7.72998e-05 -2.10065e-06 0)
(0.000142562 -2.72009e-06 0)
(0.000220172 -3.30501e-06 0)
(0.000308357 -3.88048e-06 0)
(0.000405854 -4.47281e-06 0)
(0.00051182 -5.1084e-06 0)
(0.000625776 -5.82914e-06 0)
(0.000747696 -6.706e-06 0)
(0.000878108 -7.86071e-06 0)
(0.00101817 -9.50978e-06 0)
(0.00116909 -1.19858e-05 0)
(0.00132931 -1.4962e-05 0)
(0.00148888 -1.34136e-05 0)
(0.00156737 -1.49553e-05 0)
(2.53971e-05 0.00104276 0)
(-1.46093e-05 2.49866e-06 0)
(5.13119e-06 -8.36957e-06 0)
(9.84761e-05 -1.90891e-05 0)
(0.000246199 -2.83183e-05 0)
(0.000438149 -3.64827e-05 0)
(0.000665694 -4.40533e-05 0)
(0.000923326 -5.13329e-05 0)
(0.00120684 -5.85194e-05 0)
(0.00151295 -6.57811e-05 0)
(0.00183899 -7.33208e-05 0)
(0.00218274 -8.1404e-05 0)
(0.00254196 -9.03047e-05 0)
(0.00291284 -9.99868e-05 0)
(0.0032848 -0.000108683 0)
(0.00362558 -0.000106193 0)
(0.00383397 -4.15073e-05 0)
(0.00362133 0.000301084 0)
(0.000642007 0.00261763 0)
(-1.69517e-05 2.96982e-06 0)
(2.77625e-05 -2.67076e-05 0)
(0.000186717 -5.75917e-05 0)
(0.000433103 -8.45176e-05 0)
(0.000751007 -0.00010851 0)
(0.00112658 -0.000130673 0)
(0.0015503 -0.000151768 0)
(0.00201448 -0.000172228 0)
(0.00251247 -0.000192327 0)
(0.00303795 -0.00021226 0)
(0.00358413 -0.000232042 0)
(0.00414192 -0.000250969 0)
(0.00469559 -0.000265846 0)
(0.00521096 -0.000265329 0)
(0.00560676 -0.000210284 0)
(0.00567377 3.68108e-05 0)
(0.00497007 0.000956032 0)
(0.00144876 0.00449545 0)
(-1.54114e-05 2.03159e-07 0)
(6.26067e-05 -5.8822e-05 0)
(0.000290185 -0.000121221 0)
(0.000635236 -0.000176228 0)
(0.00107688 -0.000225464 0)
(0.00159645 -0.000270796 0)
(0.00218023 -0.000313545 0)
(0.00281643 -0.000354333 0)
(0.00349409 -0.000393322 0)
(0.00420167 -0.000430219 0)
(0.00492537 -0.000463791 0)
(0.00564556 -0.00049025 0)
(0.00632914 -0.000498738 0)
(0.00691203 -0.0004589 0)
(0.00726251 -0.000284857 0)
(0.00709718 0.000269288 0)
(0.00594397 0.00190412 0)
(0.0023836 0.00649081 0)
(-1.10638e-05 -8.34478e-06 0)
(0.000107445 -0.000107846 0)
(0.00040608 -0.000213157 0)
(0.000848667 -0.000306915 0)
(0.00141004 -0.000391113 0)
(0.00206718 -0.000468372 0)
(0.00280197 -0.000540512 0)
(0.00359803 -0.000608122 0)
(0.00443909 -0.000670787 0)
(0.00530694 -0.00072685 0)
(0.00617869 -0.000772226 0)
(0.00702144 -0.000797082 0)
(0.00778213 -0.000777571 0)
(0.00836719 -0.000655645 0)
(0.00860727 -0.000288977 0)
(0.00819614 0.000668264 0)
(0.00672903 0.00303062 0)
(0.00339574 0.00841442 0)
(-4.80737e-06 -2.50759e-05 0)
(0.000159714 -0.000177185 0)
(0.000530691 -0.000336913 0)
(0.00106815 -0.000480269 0)
(0.0017431 -0.000609308 0)
(0.00252863 -0.000727256 0)
(0.00340215 -0.000836198 0)
(0.00434223 -0.000936272 0)
(0.00532646 -0.00102574 0)
(0.00632884 -0.00110035 0)
(0.007316 -0.00115109 0)
(0.00824069 -0.00115878 0)
(0.00903059 -0.00108169 0)
(0.0095692 -0.000828783 0)
(0.0096701 -0.000202384 0)
(0.00905048 0.00121368 0)
(0.00742344 0.00424415 0)
(0.00444532 0.0101908 0)
(2.58756e-06 -5.22012e-05 0)
(0.000216522 -0.000270325 0)
(0.000659397 -0.000496102 0)
(0.00128706 -0.000699917 0)
(0.00206696 -0.000883622 0)
(0.0029687 -0.00105078 0)
(0.00396523 -0.00120333 0)
(0.00502979 -0.00134033 0)
(0.00613337 -0.00145774 0)
(0.00724152 -0.00154718 0)
(0.00831006 -0.00159251 0)
(0.00927821 -0.00156211 0)
(0.0100583 -0.00139321 0)
(0.0105214 -0.000961223 0)
(0.010486 -2.3719e-05 0)
(0.00972365 0.00186822 0)
(0.0080757 0.00547588 0)
(0.00550546 0.0117939 0)
(1.0451e-05 -9.16746e-05 0)
(0.000274691 -0.0003905 0)
(0.000786696 -0.000693958 0)
(0.00149742 -0.000968817 0)
(0.00237078 -0.00121661 0)
(0.00337328 -0.0014409 0)
(0.00447361 -0.00164288 0)
(0.00563966 -0.00181973 0)
(0.00683571 -0.00196394 0)
(0.00801903 -0.00206139 0)
(0.00913548 -0.00208675 0)
(0.0101134 -0.00199389 0)
(0.010856 -0.00169819 0)
(0.0112341 -0.00104586 0)
(0.0110888 0.000233706 0)
(0.0102607 0.00258635 0)
(0.00870334 0.00666854 0)
(0.00655474 0.0132063 0)
(1.81993e-05 -0.000145044 0)
(0.000330826 -0.000540352 0)
(0.000906306 -0.000932906 0)
(0.00168996 -0.00128877 0)
(0.00264207 -0.00160927 0)
(0.00372648 -0.00189758 0)
(0.00490795 -0.00215348 0)
(0.00614937 -0.0023713 0)
(0.0074088 -0.00253882 0)
(0.00863615 -0.00263475 0)
(0.00976942 -0.00262302 0)
(0.0107302 -0.00244232 0)
(0.0114199 -0.0019881 0)
(0.0117202 -0.00108553 0)
(0.0115063 0.000545546 0)
(0.0106879 0.00331956 0)
(0.00930331 0.00777251 0)
(0.00757134 0.0144117 0)
(2.53144e-05 -0.000213258 0)
(0.000381399 -0.000721515 0)
(0.00101131 -0.00121408 0)
(0.00185431 -0.00165991 0)
(0.00286696 -0.00206053 0)
(0.00401091 -0.00241836 0)
(0.00524762 -0.00273102 0)
(0.0065357 -0.002989 0)
(0.00782806 -0.00317428 0)
(0.00906909 -0.00325721 0)
(0.0101919 -0.00319044 0)
(0.0111164 -0.00289833 0)
(0.0117494 -0.00226082 0)
(0.0119913 -0.00109224 0)
(0.0117565 0.000879757 0)
(0.0110145 0.00401952 0)
(0.00985852 0.00874462 0)
(0.00852997 0.0153935 0)
(3.13336e-05 -0.000296553 0)
(0.000422848 -0.000934089 0)
(0.00109439 -0.00153671 0)
(0.00197929 -0.00208006 0)
(0.00303056 -0.00256658 0)
(0.0042082 -0.00299769 0)
(0.00547129 -0.00336812 0)
(0.00677532 -0.0036637 0)
(0.00806976 -0.00385965 0)
(0.00929593 -0.00391748 0)
(0.0103858 -0.00377894 0)
(0.0112624 -0.00335656 0)
(0.0118439 -0.00252068 0)
(0.0120544 -0.00108541 0)
(0.0118458 0.00119992 0)
(0.0112338 0.0046403 0)
(0.0103414 0.00954706 0)
(0.00939981 0.0161336 0)
(3.55806e-05 -0.000386301 0)
(0.00044942 -0.00115594 0)
(0.00114373 -0.0018674 0)
(0.00204737 -0.0025054 0)
(0.0031105 -0.00307412 0)
(0.00429234 -0.00357405 0)
(0.00555084 -0.00399677 0)
(0.00684015 -0.0043232 0)
(0.00810852 -0.00452201 0)
(0.00929717 -0.00454669 0)
(0.0103405 -0.00433034 0)
(0.0111685 -0.00377791 0)
(0.0117133 -0.00275693 0)
(0.0119215 -0.00108986 0)
(0.0117751 0.00144576 0)
(0.0113185 0.00509903 0)
(0.0106844 0.010099 0)
(0.0100814 0.0165757 0)
(3.8841e-05 -0.000485214 0)
(0.000464059 -0.00139584 0)
(0.00116493 -0.00222017 0)
(0.00206769 -0.00295468 0)
(0.00312008 -0.0036061 0)
(0.00428132 -0.00417409 0)
(0.00550942 -0.00464685 0)
(0.00675867 -0.00500016 0)
(0.00797807 -0.00519617 0)
(0.0091111 -0.00518113 0)
(0.0100973 -0.00488124 0)
(0.0108763 -0.00419718 0)
(0.0113956 -0.00299862 0)
(0.0116232 -0.00112203 0)
(0.0115649 0.00162306 0)
(0.0112832 0.00543267 0)
(0.0109095 0.0104675 0)
(0.0106256 0.0167966 0)
(4.09801e-05 -0.000607622 0)
(0.000462797 -0.00168987 0)
(0.00114688 -0.0026466 0)
(0.00201952 -0.0034921 0)
(0.00302708 -0.00423716 0)
(0.00413 -0.00488066 0)
(0.00528814 -0.00540689 0)
(0.00645811 -0.00578578 0)
(0.00759237 -0.00597259 0)
(0.00864001 -0.00590667 0)
(0.00954943 -0.00550918 0)
(0.0102735 -0.00468034 0)
(0.0107775 -0.00329795 0)
(0.0110505 -0.00121976 0)
(0.0111174 0.00170657 0)
(0.0110503 0.00562286 0)
(0.01097 0.0106288 0)
(0.0110278 0.0167463 0)
(4.06522e-05 -0.000752183 0)
(0.000434795 -0.00203499 0)
(0.00106467 -0.00314084 0)
(0.00186117 -0.00410835 0)
(0.00277217 -0.00495456 0)
(0.00376151 -0.00567789 0)
(0.00479362 -0.00625864 0)
(0.0058306 -0.00666076 0)
(0.00683209 -0.00683309 0)
(0.00775678 -0.0067097 0)
(0.00856576 -0.00620991 0)
(0.00922784 -0.00523851 0)
(0.00972673 -0.00368774 0)
(0.0100693 -0.00144269 0)
(0.010293 0.00160796 0)
(0.0104703 0.00555509 0)
(0.0107044 0.0104479 0)
(0.0111158 0.0162745 0)
(3.61126e-05 -0.000910005 0)
(0.000366476 -0.00240981 0)
(0.000887276 -0.00367198 0)
(0.00154068 -0.00476388 0)
(0.00228175 -0.0057114 0)
(0.00308117 -0.0065134 0)
(0.00391158 -0.00714683 0)
(0.0047447 -0.00757067 0)
(0.00555161 -0.00772901 0)
(0.00630461 -0.00755362 0)
(0.00698056 -0.00696621 0)
(0.00756536 -0.0058814 0)
(0.00805926 -0.00421093 0)
(0.00848188 -0.00187022 0)
(0.00887546 0.00121242 0)
(0.00930489 0.00508424 0)
(0.00985244 0.00975623 0)
(0.0106088 0.0151942 0)
(2.54948e-05 -0.00105782 0)
(0.000243543 -0.00275926 0)
(0.000582341 -0.0041629 0)
(0.00100402 -0.00536444 0)
(0.00147915 -0.00640027 0)
(0.00199019 -0.00727114 0)
(0.00252226 -0.00795239 0)
(0.00306093 -0.00840033 0)
(0.00359278 -0.00855752 0)
(0.00410692 -0.00835723 0)
(0.00459753 -0.00772794 0)
(0.00506687 -0.00659797 0)
(0.00552824 -0.00490071 0)
(0.00600821 -0.00258062 0)
(0.00654705 0.000400205 0)
(0.00719698 0.00405552 0)
(0.00801835 0.00837033 0)
(0.0090756 0.0132981 0)
(7.24546e-06 -0.00114896 0)
(5.65205e-05 -0.00297385 0)
(0.000129643 -0.00446196 0)
(0.000217864 -0.00572793 0)
(0.000316693 -0.00681695 0)
(0.000425628 -0.00773298 0)
(0.000545951 -0.00845243 0)
(0.000680394 -0.0089327 0)
(0.000833583 -0.00911885 0)
(0.00101293 -0.00894969 0)
(0.00122985 -0.00836349 0)
(0.00150095 -0.00730335 0)
(0.00184903 -0.00572237 0)
(0.00230326 -0.00358828 0)
(0.00289832 -0.000887497 0)
(0.00367222 0.00237211 0)
(0.00466491 0.00616042 0)
(0.00591865 0.0104269 0)
(-1.94702e-05 -0.00110586 0)
(-0.00018561 -0.00287213 0)
(-0.000446866 -0.00431711 0)
(-0.000776555 -0.00555091 0)
(-0.00114842 -0.00661941 0)
(-0.00154326 -0.0075295 0)
(-0.00194247 -0.00826202 0)
(-0.00232567 -0.00878009 0)
(-0.00267026 -0.00903608 0)
(-0.00295135 -0.00897798 0)
(-0.00314187 -0.00855525 0)
(-0.00321292 -0.00772402 0)
(-0.00313427 -0.00645155 0)
(-0.00287536 -0.00471957 0)
(-0.00240662 -0.00252638 0)
(-0.00170075 0.00011235 0)
(-0.00073349 0.00316377 0)
(0.000519148 0.00657981 0)
(-3.76343e-05 -0.000908948 0)
(-0.000365853 -0.00240159 0)
(-0.000883482 -0.00364989 0)
(-0.00153898 -0.00473154 0)
(-0.00228582 -0.00568122 0)
(-0.00309279 -0.00650592 0)
(-0.00393066 -0.00719203 0)
(-0.00476812 -0.00771104 0)
(-0.00557124 -0.00802503 0)
(-0.00630394 -0.00809208 0)
(-0.00692881 -0.00787133 0)
(-0.00740836 -0.00732756 0)
(-0.00770628 -0.00643487 0)
(-0.00778907 -0.0051794 0)
(-0.00762751 -0.00356078 0)
(-0.00719779 -0.00159242 0)
(-0.00648083 0.000699178 0)
(-0.00546061 0.0032759 0)
(-4.46426e-05 -0.000688662 0)
(-0.000447628 -0.00187793 0)
(-0.00109033 -0.00290425 0)
(-0.00191154 -0.00380716 0)
(-0.00285767 -0.00460868 0)
(-0.00389335 -0.00531516 0)
(-0.00498528 -0.005918 0)
(-0.0060979 -0.00639646 0)
(-0.00719291 -0.00672158 0)
(-0.00822967 -0.0068604 0)
(-0.00916633 -0.0067801 0)
(-0.00996128 -0.00645187 0)
(-0.0105749 -0.00585397 0)
(-0.0109713 -0.00497404 0)
(-0.0111199 -0.00381028 0)
(-0.0109967 -0.0023717 0)
(-0.010584 -0.000677496 0)
(-0.00986786 0.00124385 0)
(-4.33553e-05 -0.000476648 0)
(-0.000457649 -0.00136952 0)
(-0.00113241 -0.00217159 0)
(-0.00200674 -0.00288709 0)
(-0.0030278 -0.00352727 0)
(-0.00416016 -0.00409803 0)
(-0.00537008 -0.00459514 0)
(-0.0066218 -0.0050048 0)
(-0.00787685 -0.0053062 0)
(-0.00909436 -0.00547454 0)
(-0.0102319 -0.00548441 0)
(-0.0112472 -0.00531273 0)
(-0.0120995 -0.00494133 0)
(-0.0127517 -0.00435885 0)
(-0.0131721 -0.00356179 0)
(-0.0133354 -0.00255481 0)
(-0.0132228 -0.00135039 0)
(-0.0128209 3.14959e-05 0)
(-3.60338e-05 -0.000300203 0)
(-0.000415279 -0.000937038 0)
(-0.00105425 -0.00153596 0)
(-0.00189824 -0.0020756 0)
(-0.00289918 -0.00256026 0)
(-0.0040235 -0.00299567 0)
(-0.00523913 -0.00338095 0)
(-0.00651261 -0.00370785 0)
(-0.00780826 -0.00396224 0)
(-0.00908796 -0.0041264 0)
(-0.0103118 -0.00418145 0)
(-0.0114393 -0.00410966 0)
(-0.0124313 -0.00389642 0)
(-0.0132511 -0.00353177 0)
(-0.0138666 -0.0030113 0)
(-0.0142519 -0.00233647 0)
(-0.0143869 -0.00151449 0)
(-0.0142575 -0.000558324 0)
(-2.50675e-05 -0.000168733 0)
(-0.000341242 -0.000601421 0)
(-0.000902361 -0.00102832 0)
(-0.00166203 -0.00141459 0)
(-0.00257815 -0.00176136 0)
(-0.00361969 -0.00207425 0)
(-0.00475746 -0.00235451 0)
(-0.00596189 -0.00259781 0)
(-0.00720178 -0.00279518 0)
(-0.00844368 -0.00293457 0)
(-0.00965222 -0.00300266 0)
(-0.010791 -0.00298653 0)
(-0.011824 -0.00287508 0)
(-0.012717 -0.00266021 0)
(-0.0134392 -0.00233748 0)
(-0.0139648 -0.00190651 0)
(-0.0142733 -0.0013709 0)
(-0.0143502 -0.000738388 0)
(-1.26715e-05 -8.06431e-05 0)
(-0.00025384 -0.000359761 0)
(-0.000716577 -0.000647917 0)
(-0.00136225 -0.000908001 0)
(-0.00215443 -0.00114052 0)
(-0.00306496 -0.00135071 0)
(-0.00406836 -0.00154079 0)
(-0.00513977 -0.00170892 0)
(-0.00625334 -0.00184974 0)
(-0.00738135 -0.00195555 0)
(-0.00849409 -0.00201751 0)
(-0.00956053 -0.00202679 0)
(-0.0105493 -0.00197551 0)
(-0.0114301 -0.00185761 0)
(-0.012175 -0.00166933 0)
(-0.0127597 -0.00140949 0)
(-0.0131642 -0.00107951 0)
(-0.0133746 -0.000683538 0)
(-7.90764e-07 -2.86314e-05 0)
(-0.00016757 -0.000197454 0)
(-0.000527021 -0.000378411 0)
(-0.00104651 -0.000540217 0)
(-0.00169468 -0.000683862 0)
(-0.00244677 -0.000813731 0)
(-0.00328157 -0.000932116 0)
(-0.00417931 -0.00103848 0)
(-0.00511977 -0.00112989 0)
(-0.00608125 -0.00120179 0)
(-0.00704019 -0.00124873 0)
(-0.00797153 -0.00126514 0)
(-0.00884955 -0.00124592 0)
(-0.00964882 -0.00118695 0)
(-0.0103454 -0.00108544 0)
(-0.0109178 -0.000940161 0)
(-0.011348 -0.000751413 0)
(-0.0116232 -0.000521077 0)
(8.84792e-06 -3.25351e-06 0)
(-9.29458e-05 -9.62105e-05 0)
(-0.000354049 -0.000198274 0)
(-0.000746312 -0.000288117 0)
(-0.00124336 -0.000367152 0)
(-0.00182462 -0.000438555 0)
(-0.00247353 -0.000504103 0)
(-0.00317541 -0.000563811 0)
(-0.00391555 -0.000616244 0)
(-0.00467806 -0.000658969 0)
(-0.00544547 -0.000688999 0)
(-0.0061989 -0.000703201 0)
(-0.00691858 -0.000698634 0)
(-0.00758463 -0.00067284 0)
(-0.00817793 -0.00062405 0)
(-0.00868092 -0.000551312 0)
(-0.00907838 -0.000454517 0)
(-0.00935944 -0.000334299 0)
(1.46186e-05 4.98559e-06 0)
(-3.68611e-05 -3.86873e-05 0)
(-0.000209626 -8.67904e-05 0)
(-0.000479848 -0.000128241 0)
(-0.000826866 -0.000164312 0)
(-0.00123512 -0.000196861 0)
(-0.00169294 -0.000226941 0)
(-0.00219048 -0.000254695 0)
(-0.00271804 -0.000279534 0)
(-0.00326509 -0.000300376 0)
(-0.0038199 -0.000315853 0)
(-0.00436953 -0.000324501 0)
(-0.0049002 -0.000324918 0)
(-0.00539781 -0.000315899 0)
(-0.00584854 -0.000296533 0)
(-0.00623948 -0.000266267 0)
(-0.00655905 -0.000224924 0)
(-0.00679899 -0.000172571 0)
(1.48582e-05 4.57879e-06 0)
(-3.19494e-06 -1.05738e-05 0)
(-9.9216e-05 -2.65877e-05 0)
(-0.000255487 -3.99866e-05 0)
(-0.000458361 -5.14803e-05 0)
(-0.000698079 -6.18342e-05 0)
(-0.000967827 -7.14761e-05 0)
(-0.00126212 -8.04965e-05 0)
(-0.00157566 -8.87301e-05 0)
(-0.00190265 -9.58386e-05 0)
(-0.00223649 -0.000101382 0)
(-0.0025698 -0.000104881 0)
(-0.00289455 -0.000105865 0)
(-0.00320241 -0.000103923 0)
(-0.00348506 -9.87283e-05 0)
(-0.00373459 -9.00649e-05 0)
(-0.0039437 -7.78198e-05 0)
(-0.00410715 -6.18859e-05 0)
(7.97559e-06 1.62837e-06 0)
(6.62796e-06 -5.17723e-07 0)
(-2.35934e-05 -1.84869e-06 0)
(-7.48967e-05 -2.89048e-06 0)
(-0.000142141 -3.74681e-06 0)
(-0.000221868 -4.51565e-06 0)
(-0.000311848 -5.24501e-06 0)
(-0.000410388 -5.94918e-06 0)
(-0.000515878 -6.61892e-06 0)
(-0.000626537 -7.22966e-06 0)
(-0.000740293 -7.74725e-06 0)
(-0.000854765 -8.1334e-06 0)
(-0.000967319 -8.34915e-06 0)
(-0.00107516 -8.35892e-06 0)
(-0.00117546 -8.13309e-06 0)
(-0.00126547 -7.6537e-06 0)
(-0.00134256 -6.88254e-06 0)
(-0.00140482 -5.78443e-06 0)
(1.15976e-05 -2.70003e-05 6.92185e-24)
(7.94188e-05 -6.16787e-05 -9.14602e-24)
(0.000187129 -8.08637e-05 0)
(0.000316125 -8.78469e-05 0)
(0.00044415 -8.65181e-05 0)
(0.000555577 -7.96257e-05 7.73796e-24)
(0.000639716 -6.92417e-05 0)
(0.000689141 -5.69444e-05 0)
(0.000698839 -4.38609e-05 0)
(0.000665688 -3.07172e-05 0)
(0.000587932 -1.79528e-05 -1.28129e-24)
(0.000464686 -5.77846e-06 0)
(0.000295603 5.76471e-06 0)
(8.05849e-05 1.67495e-05 0)
(-0.000180422 2.73225e-05 0)
(-0.000487567 3.76739e-05 8.70385e-24)
(-0.000841166 4.80114e-05 0)
(-0.00124172 5.85386e-05 0)
(-0.0016899 6.94382e-05 0)
(-0.00218646 8.08595e-05 0)
(-0.00273218 9.29102e-05 0)
(-0.00332767 0.00010565 0)
(-0.00397332 0.000119085 0)
(-0.00466909 0.00013317 2.87535e-23)
(-0.00541435 0.000147802 -3.13026e-23)
(-0.00620779 0.000162829 3.37713e-23)
(-0.0070472 0.000178042 3.61203e-23)
(-0.00792941 0.000193187 0)
(-0.00885014 0.000207961 0)
(-0.00980397 0.000222024 -4.19896e-23)
(-0.0107842 0.000234999 -4.33813e-23)
(-0.0117829 0.000246482 0)
(-0.012791 0.000256053 0)
(-0.0137981 0.000263285 -4.50746e-23)
(-0.0147929 0.000267761 0)
(-0.0157629 0.000269085 0)
(-0.0166951 0.000266903 4.18774e-23)
(-0.0175758 0.000260915 0)
(-0.0183912 0.000250897 3.64073e-23)
(-0.0191272 0.00023671 6.51618e-23)
(-0.0197703 0.000218321 0)
(-0.0203076 0.000195805 0)
(-0.0207268 0.000169351 0)
(-0.0210174 0.000139265 0)
(-0.0211701 0.000105989 0)
(-0.0211772 7.01342e-05 -1.0549e-23)
(-0.0210331 3.21117e-05 -2.73458e-23)
(-0.0207348 -7.35924e-06 -4.49324e-23)
(-0.020281 -4.74901e-05 0)
(-0.0196732 -8.75183e-05 8.16195e-23)
(-0.0189148 -0.000126701 0)
(-0.0180114 -0.000164328 -1.18729e-22)
(-0.0169707 -0.00019975 -1.36807e-22)
(-0.0158021 -0.000232395 0)
(-0.0145166 -0.000261793 0)
(-0.0131263 -0.00028758 0)
(-0.011644 -0.000309507 -1.99998e-22)
(-0.0100835 -0.00032744 0)
(-0.0084586 -0.000341343 0)
(-0.0067831 -0.000351275 0)
(-0.00507071 -0.000357359 0)
(-0.00333478 -0.000359763 0)
(-0.00158825 -0.000358629 0)
(0.000156333 -0.000354003 0)
(0.00188706 -0.000345974 0)
(0.00359224 -0.000334828 2.34222e-22)
(0.00526015 -0.00032086 0)
(0.00687915 -0.000304224 0)
(0.00843753 -0.000284984 -2.03388e-22)
(0.00992332 -0.00026317 -1.89342e-22)
(0.0113241 -0.000238799 0)
(0.0126271 -0.000211904 1.56613e-22)
(0.013819 -0.000182564 -1.38353e-22)
(0.0148864 -0.000150926 0)
(0.0158159 -0.000117236 9.92758e-23)
(0.0165944 -8.18586e-05 0)
(0.01721 -4.52852e-05 0)
(0.0176522 -8.14279e-06 -3.85454e-23)
(0.0179125 2.87898e-05 0)
(0.0179854 6.4619e-05 2.31793e-25)
(0.0178687 9.86346e-05 0)
(0.0175648 0.00012978 3.35309e-23)
(0.0170798 0.000157199 4.80678e-23)
(0.0164245 0.00018014 6.07838e-23)
(0.0156146 0.000197995 1.43101e-22)
(0.0146697 0.000210366 -1.60598e-22)
(0.0136133 0.000217095 0)
(0.0124717 0.000218285 0)
(0.011273 0.000214287 0)
(0.010046 0.000205679 -1.91732e-22)
(0.00881855 0.000193212 -1.91132e-22)
(0.00761697 0.000177751 1.87992e-22)
(0.00646449 0.000160204 0)
(0.00538065 0.000141457 -1.76018e-22)
(0.00438074 0.000122313 -1.68128e-22)
(0.00347559 0.000103458 -1.59549e-22)
(0.00267163 8.544e-05 0)
(0.00197113 6.86829e-05 0)
(0.00137255 5.3507e-05 0)
(0.00087097 4.0159e-05 -1.25011e-22)
(0.000458555 2.88303e-05 0)
(0.00012504 1.96565e-05 0)
(-0.000141618 1.26998e-05 1.04823e-22)
(-0.000354463 7.91951e-06 0)
(-0.000526624 5.14692e-06 0)
(-0.000670373 4.09002e-06 9.19117e-23)
(-0.000796305 4.36041e-06 0)
(-0.000912735 5.518e-06 0)
(-0.0010254 7.12585e-06 -8.50538e-23)
(-0.0011375 8.7993e-06 -8.35839e-23)
(-0.00124999 1.02384e-05 0)
(-0.00136204 1.1241e-05 8.11688e-23)
(-0.00147162 1.16992e-05 0)
(-0.00157604 1.15844e-05 -7.88644e-23)
(-0.00167237 1.09278e-05 0)
(-0.00175782 9.8008e-06 -7.62311e-23)
(-0.00183003 8.29829e-06 -7.47319e-23)
(-0.00188716 6.52555e-06 0)
(-0.00192802 4.58877e-06 0)
(-0.00195211 2.59094e-06 0)
(-0.00195951 6.30793e-07 0)
(-0.00195091 -1.2306e-06 0)
(-0.0019275 -2.92443e-06 0)
(-0.00189085 -4.4e-06 0)
(-0.00184282 -5.62587e-06 -5.99963e-23)
(-0.00178545 -6.58626e-06 5.8197e-23)
(-0.00172088 -7.27903e-06 0)
(-0.00165121 -7.71395e-06 0)
(-0.00157849 -7.91039e-06 0)
(-0.00150457 -7.8948e-06 0)
(-0.00143112 -7.69828e-06 1.01526e-22)
(-0.00135956 -7.35413e-06 0)
(-0.00129108 -6.89588e-06 -9.71953e-23)
(-0.0012266 -6.3556e-06 9.53438e-23)
(-0.00116679 -5.76264e-06 0)
(-0.00111211 -5.14284e-06 0)
(-0.00106282 -4.51802e-06 0)
(-0.00101898 -3.90591e-06 -8.95472e-23)
(-0.000980538 -3.32023e-06 -8.83863e-23)
(-0.000947306 -2.77102e-06 0)
(-0.000919018 -2.26502e-06 -8.62599e-23)
(-0.000895341 -1.80621e-06 -8.52577e-23)
(-0.000875901 -1.39624e-06 8.42753e-23)
(-0.000860304 -1.03499e-06 0)
(-0.000848146 -7.20944e-07 0)
(-0.000839026 -4.51583e-07 8.13256e-23)
(-0.00083256 -2.2372e-07 0)
(-0.00082838 -3.36666e-08 0)
(-0.000826143 1.22407e-07 0)
(-0.000825528 2.44079e-07 0)
(-0.000826265 3.20458e-07 -7.59558e-23)
(-0.000828089 4.00179e-07 -7.47799e-23)
(-0.000830757 4.58258e-07 0)
(-0.000834076 4.96094e-07 -7.23206e-23)
(-0.000837872 5.18199e-07 0)
(-0.000841994 5.28059e-07 0)
(-0.000846316 5.28347e-07 -6.83781e-23)
(-0.000850735 5.21423e-07 0)
(-0.000855173 5.09469e-07 -6.56012e-23)
(-0.00085957 4.94502e-07 0)
(-0.000863888 4.78385e-07 0)
(-0.000868108 4.62774e-07 -6.12537e-23)
(-0.000872224 4.49043e-07 0)
(-0.000876244 4.38146e-07 -5.82542e-23)
(-0.000880182 4.30438e-07 0)
(-0.000884047 4.25454e-07 0)
(-0.000887836 4.21659e-07 0)
(-0.000891516 4.16195e-07 5.20308e-23)
(-0.000895012 4.04525e-07 0)
(-0.000898182 3.79277e-07 -4.87865e-23)
(-0.000900806 3.32264e-07 0)
(-0.000902547 2.78947e-07 0)
(-0.000902932 1.86452e-07 0)
(-0.000901346 2.85488e-08 0)
(-0.000896972 -2.00803e-07 0)
(-0.000888709 -5.2578e-07 0)
(-0.000874898 -1.01493e-06 0)
(-0.00085249 -2.23797e-06 6.91525e-23)
(-0.000823649 -2.23004e-06 0)
(-0.000728639 -1.47122e-05 0)
(1.76138e-05 -0.000154174 -2.31688e-23)
(0.000128185 -0.000350914 3.09535e-23)
(0.000282174 -0.000450191 0)
(0.000446861 -0.000468781 -2.05424e-23)
(0.000585966 -0.000424417 0)
(0.000672352 -0.000333289 -8.30462e-24)
(0.000685854 -0.000209059 1.633e-23)
(0.000611245 -6.26999e-05 1.41728e-23)
(0.000437215 9.73626e-05 0)
(0.000155592 0.000264956 8.87698e-24)
(-0.000239386 0.000435776 1.3806e-24)
(-0.000751682 0.000607062 0)
(-0.00138404 0.00077726 0)
(-0.00213843 0.000945706 0)
(-0.00301635 0.00111235 0)
(-0.00401905 0.00127751 -9.34324e-24)
(-0.00514764 0.00144167 0)
(-0.00640308 0.00160526 2.25411e-23)
(-0.00778609 0.00176858 0)
(-0.00929699 0.0019316 0)
(-0.0109355 0.00209393 -3.74059e-23)
(-0.0127003 0.00225471 0)
(-0.014589 0.00241266 4.77866e-23)
(-0.0165977 0.00256598 -3.05533e-23)
(-0.0187203 0.00271246 3.3202e-23)
(-0.0209489 0.00284945 -3.5753e-23)
(-0.0232731 0.00297398 -3.81654e-23)
(-0.0256799 0.00308281 0)
(-0.0281533 0.0031725 0)
(-0.0306749 0.00323956 4.41023e-23)
(-0.0332235 0.00328053 -3.803e-23)
(-0.0357749 0.00329207 0)
(-0.0383031 0.00327116 0)
(-0.0407796 0.00321513 4.69996e-23)
(-0.0431743 0.00312185 0)
(-0.0454561 0.00298979 0)
(-0.0475932 0.00281817 -4.34986e-23)
(-0.0495538 0.00260697 0)
(-0.0513067 0.00235704 3.6005e-23)
(-0.052822 0.00207013 -6.7578e-23)
(-0.0540718 0.00174883 0)
(-0.0550308 0.00139661 0)
(-0.0556767 0.00101771 -7.33543e-23)
(-0.055991 0.000617012 -4.7393e-23)
(-0.0559591 0.000200014 -1.86636e-23)
(-0.0555709 -0.000227276 -1.59946e-24)
(-0.0548209 -0.000658764 2.85311e-23)
(-0.0537083 -0.00108805 1.28375e-22)
(-0.0522371 -0.00150883 -1.18261e-22)
(-0.0504158 -0.00191514 -8.56848e-23)
(-0.048257 -0.00230143 0)
(-0.0457774 -0.00266275 1.25367e-22)
(-0.0429972 -0.00299484 -1.26543e-22)
(-0.0399394 -0.00329425 0)
(-0.0366294 -0.00355838 0)
(-0.0330946 -0.00378548 0)
(-0.0293636 -0.00397467 2.15357e-22)
(-0.0254654 -0.00412586 0)
(-0.0214296 -0.00423962 -4.62628e-22)
(-0.0172851 -0.00431709 0)
(-0.0130605 -0.00435983 -5.00399e-22)
(-0.00878341 -0.00436959 0)
(-0.00448049 -0.00434813 5.20137e-22)
(-0.000177853 -0.00429699 0)
(0.00409946 -0.0042175 -5.1273e-22)
(0.00832692 -0.00411093 2.38132e-22)
(0.0124797 -0.00397839 0)
(0.0165329 -0.00382044 4.54711e-22)
(0.0204612 -0.00363717 2.2332e-22)
(0.0242382 -0.00342833 2.07302e-22)
(0.0278364 -0.00319351 0)
(0.0312263 -0.00293229 1.53678e-22)
(0.0343773 -0.0026445 1.50409e-22)
(0.0372574 -0.00233043 0)
(0.0398334 -0.00199109 -1.07582e-22)
(0.0420724 -0.00162842 1.58794e-22)
(0.0439418 -0.00124548 0)
(0.0454111 -0.000846586 4.1686e-23)
(0.0464532 -0.000437384 0)
(0.0470459 -2.48279e-05 5.27065e-24)
(0.0471736 0.000383223 0)
(0.046829 0.00077786 -1.1131e-22)
(0.0460145 0.00114984 -5.21214e-23)
(0.0447434 0.00148993 6.4497e-23)
(0.0430404 0.00178937 1.48887e-22)
(0.040942 0.0020405 -1.64709e-22)
(0.038496 0.00223723 0)
(0.0357602 0.00237558 0)
(0.0328004 0.00245398 0)
(0.029688 0.00247341 6.14257e-22)
(0.0264966 0.00243736 2.12051e-22)
(0.0232989 0.00235157 -2.09421e-22)
(0.0201633 0.00222353 0)
(0.0171511 0.00206195 -1.7432e-22)
(0.014314 0.00187609 1.8959e-22)
(0.0116927 0.00167516 1.80601e-22)
(0.00931583 0.00146788 0)
(0.00720004 0.00126216 0)
(0.00535045 0.00106492 0)
(0.00376151 0.000882053 1.43319e-22)
(0.00241825 0.000718319 0)
(0.00129789 0.000577248 -2.45171e-22)
(0.000371747 0.000460941 -3.54548e-22)
(-0.000392457 0.000369881 2.23305e-22)
(-0.00102805 0.000302856 0)
(-0.00156681 0.000257117 1.01086e-22)
(-0.00203679 0.000228752 0)
(-0.00246065 0.000213182 1.9699e-22)
(-0.00285485 0.000205735 -9.49083e-23)
(-0.00322958 0.000202159 -9.35896e-23)
(-0.00358938 0.000198982 0)
(-0.00393421 0.000193693 -2.79494e-22)
(-0.00426082 0.000184757 1.83202e-22)
(-0.00456397 0.000171501 9.14327e-23)
(-0.00483767 0.000153947 0)
(-0.00507606 0.000132617 8.84691e-23)
(-0.00527411 0.000108349 2.59227e-22)
(-0.00542806 8.21555e-05 0)
(-0.00553568 5.50977e-05 1.65475e-22)
(-0.00559631 2.82053e-05 1.6163e-22)
(-0.00561087 2.4169e-06 1.57608e-22)
(-0.00558165 -2.14903e-05 0)
(-0.00551215 -4.28831e-05 0)
(-0.00540686 -6.13014e-05 0)
(-0.00527094 -7.64628e-05 -7.09014e-23)
(-0.00510995 -8.82509e-05 -6.80235e-23)
(-0.00492967 -9.66975e-05 0)
(-0.00473578 -0.000101961 -1.29583e-22)
(-0.0045337 -0.0001043 -1.26218e-22)
(-0.00432843 -0.000104046 0)
(-0.00412442 -0.000101577 -1.19186e-22)
(-0.0039255 -9.72932e-05 -2.35244e-22)
(-0.00373485 -9.15939e-05 1.143e-22)
(-0.00355497 -8.48605e-05 1.13981e-22)
(-0.00338771 -7.74438e-05 0)
(-0.00323433 -6.96542e-05 0)
(-0.00309557 -6.17569e-05 0)
(-0.00297167 -5.39703e-05 1.05742e-22)
(-0.00286253 -4.64665e-05 -1.05451e-22)
(-0.00276768 -3.93748e-05 -2.07346e-22)
(-0.00268645 -3.2786e-05 1.02096e-22)
(-0.00261798 -2.67574e-05 -1.01584e-22)
(-0.00256128 -2.1318e-05 -9.9893e-23)
(-0.0025153 -1.64747e-05 0)
(-0.00247896 -1.22164e-05 0)
(-0.00245118 -8.51922e-06 9.68254e-23)
(-0.00243092 -5.34972e-06 0)
(-0.00241717 -2.66866e-06 0)
(-0.00240899 -4.3362e-07 -1.86208e-22)
(-0.00240552 1.39518e-06 0)
(-0.00240596 2.8473e-06 -9.05064e-23)
(-0.00240958 4.0091e-06 8.91845e-23)
(-0.00241574 4.89742e-06 0)
(-0.00242388 5.5463e-06 -8.62817e-23)
(-0.0024335 5.99322e-06 0)
(-0.00244417 6.27263e-06 0)
(-0.00245553 6.41619e-06 8.18152e-23)
(-0.00246728 6.45317e-06 -1.60334e-22)
(-0.0024792 6.4107e-06 7.85944e-23)
(-0.00249109 6.31368e-06 0)
(-0.00250284 6.18452e-06 0)
(-0.00251437 6.04243e-06 -7.34215e-23)
(-0.00252565 5.90231e-06 0)
(-0.00253668 5.77317e-06 -6.99166e-23)
(-0.00254745 5.65605e-06 0)
(-0.00255796 5.54166e-06 0)
(-0.00256815 5.40784e-06 0)
(-0.00257791 5.21717e-06 -6.27012e-23)
(-0.00258696 4.91494e-06 0)
(-0.00259486 4.42699e-06 5.88682e-23)
(-0.00260094 3.66027e-06 0)
(-0.00260424 2.53999e-06 0)
(-0.00260343 9.02383e-07 -1.05665e-22)
(-0.00259676 -1.42472e-06 1.015e-22)
(-0.00258197 -4.63632e-06 0)
(-0.00255609 -9.05057e-06 0)
(-0.00251494 -1.53052e-05 0)
(-0.00245187 -2.4968e-05 -2.52548e-22)
(-0.0023689 -4.02557e-05 0)
(-0.00217584 -7.77839e-05 1.50334e-22)
(1.44286e-05 -0.000288373 -3.13928e-24)
(9.12086e-05 -0.000617446 -4.61194e-23)
(0.000172006 -0.000741867 0)
(0.000220962 -0.000702619 4.43204e-23)
(0.000201242 -0.000535712 0)
(8.46383e-05 -0.0002721 0)
(-0.000150666 6.23329e-05 3.07191e-24)
(-0.000521872 0.000446565 -1.41677e-23)
(-0.00104254 0.000864038 -1.50025e-23)
(-0.00172322 0.00130217 -8.84447e-24)
(-0.00257205 0.00175183 0)
(-0.00359528 0.00220669 0)
(-0.00479775 0.00266269 3.23466e-24)
(-0.00618321 0.00311742 -5.15081e-25)
(-0.00775449 0.00356964 7.91441e-24)
(-0.00951369 0.00401876 0)
(-0.0114621 0.00446441 2.39225e-23)
(-0.0136002 0.00490607 -2.2198e-23)
(-0.0159272 0.00534277 0)
(-0.0184412 0.00577279 5.07561e-23)
(-0.0211384 0.00619353 3.66256e-23)
(-0.024013 0.00660139 -7.02064e-23)
(-0.0270567 0.00699172 -4.65964e-23)
(-0.0302584 0.00735884 0)
(-0.0336036 0.00769618 1.00574e-22)
(-0.0370747 0.00799641 1.10638e-22)
(-0.0406502 0.00825164 0)
(-0.0443049 0.00845363 1.29888e-22)
(-0.0480099 0.00859414 0)
(-0.0517329 0.00866513 1.46832e-22)
(-0.0554384 0.00865912 8.01518e-23)
(-0.059088 0.00856943 0)
(-0.0626412 0.00839052 0)
(-0.066056 0.00811823 0)
(-0.0692894 0.00775 0)
(-0.0722986 0.00728505 0)
(-0.0750413 0.00672452 0)
(-0.0774773 0.00607155 1.57327e-22)
(-0.0795683 0.00533128 -2.18927e-22)
(-0.0812797 0.00451075 0)
(-0.0825805 0.00361885 0)
(-0.0834444 0.00266603 0)
(-0.0838497 0.00166413 -1.39944e-23)
(-0.0837806 0.00062605 4.53927e-23)
(-0.0832261 -0.000434365 5.20743e-23)
(-0.0821821 -0.00150287 6.86724e-24)
(-0.0806497 -0.00256504 2.60947e-23)
(-0.0786355 -0.00360686 -7.80966e-23)
(-0.0761514 -0.00461502 1.93025e-23)
(-0.0732143 -0.00557713 -1.3033e-22)
(-0.0698457 -0.00648211 0)
(-0.0660711 -0.00732031 -2.04336e-22)
(-0.0619194 -0.0080838 2.0718e-23)
(-0.0574223 -0.00876642 0)
(-0.0526136 -0.00936387 0)
(-0.0475285 -0.00987366 3.45753e-22)
(-0.0422033 -0.010295 0)
(-0.0366741 -0.0106288 0)
(-0.0309771 -0.0108772 -4.08489e-22)
(-0.0251475 -0.0110433 -9.03433e-22)
(-0.0192194 -0.011131 4.91203e-22)
(-0.0132259 -0.0111447 0)
(-0.00719845 -0.0110885 -5.13345e-22)
(-0.00116796 -0.0109664 0)
(0.00483595 -0.0107814 -4.64314e-22)
(0.0107848 -0.0105358 -4.917e-22)
(0.0166488 -0.0102314 9.01169e-22)
(0.0223981 -0.0098686 4.06464e-22)
(0.0280019 -0.00944709 0)
(0.0334278 -0.00896559 -7.36409e-22)
(0.0386409 -0.00842232 0)
(0.0436041 -0.00781537 -9.12392e-22)
(0.0482771 -0.00714314 -5.1983e-22)
(0.0526173 -0.0064049 -4.40442e-22)
(0.0565795 -0.00560135 3.59224e-22)
(0.0601169 -0.00473511 -4.3121e-22)
(0.0631816 -0.00381127 0)
(0.0657268 -0.0028378 0)
(0.0677075 -0.00182579 3.93834e-23)
(0.0690833 -0.000789587 -3.87423e-23)
(0.0698204 0.000253164 0)
(0.0698929 0.00128221 7.24178e-23)