/*--------------------------------*- C++ -*----------------------------------*\
  =========                 |
  \\      /  F ield         | OpenFOAM: The Open Source CFD Toolbox
   \\    /   O peration     | Website:  https://openfoam.org
    \\  /    A nd           | Version:  8
     \\/     M anipulation  |
\*---------------------------------------------------------------------------*/
FoamFile
{
    version     2.0;
    format      ascii;
    class       volScalarField;
    location    "0.38";
    object      p;
}
// * * * * * * * * * * * * * * * * * * * * * * * * * * * * * * * * * * * * * //

dimensions      [0 2 -2 0 0 0 0];

internalField   nonuniform List<scalar> 
12225
(
-0.0192843
-0.0192617
-0.0192764
-0.0193185
-0.019378
-0.01945
-0.0195366
-0.0196487
-0.0198059
-0.0200364
-0.020373
-0.0208483
-0.0214903
-0.0223236
-0.0233831
-0.0247582
-0.026759
-0.0311283
-0.0192884
-0.0192683
-0.019284
-0.019327
-0.0193894
-0.0194673
-0.0195637
-0.0196892
-0.019863
-0.0201113
-0.0204644
-0.020952
-0.0215988
-0.0224256
-0.0234592
-0.0247644
-0.0264997
-0.0295822
-0.0192936
-0.0192755
-0.0192922
-0.0193364
-0.0194023
-0.0194874
-0.0195951
-0.0197361
-0.0199285
-0.0201964
-0.0205672
-0.0210668
-0.0217158
-0.0225292
-0.023521
-0.0247212
-0.0261357
-0.0281944
-0.0192984
-0.0192813
-0.0192988
-0.0193444
-0.0194139
-0.0195058
-0.0196241
-0.0197791
-0.0199876
-0.0202719
-0.0206566
-0.021164
-0.0218102
-0.0226027
-0.0235406
-0.0246197
-0.0257692
-0.0271823
-0.0193024
-0.0192856
-0.0193034
-0.0193504
-0.0194235
-0.019522
-0.01965
-0.0198173
-0.0200395
-0.0203371
-0.020732
-0.0212435
-0.0218829
-0.0226501
-0.0235296
-0.0244907
-0.0254367
-0.0264434
-0.0193049
-0.0192877
-0.0193056
-0.0193541
-0.0194307
-0.0195354
-0.0196722
-0.0198504
-0.0200844
-0.0203927
-0.0207952
-0.0213082
-0.0219388
-0.0226795
-0.0235031
-0.0243612
-0.0251552
-0.0259039
-0.0193052
-0.0192872
-0.0193048
-0.0193548
-0.0194347
-0.0195451
-0.0196899
-0.0198776
-0.0201213
-0.0204382
-0.0208461
-0.021359
-0.0219802
-0.0226965
-0.0234721
-0.0242489
-0.0249368
-0.0255311
-0.0193023
-0.0192831
-0.0193002
-0.0193514
-0.0194343
-0.0195498
-0.0197015
-0.0198972
-0.0201489
-0.0204724
-0.0208841
-0.021396
-0.0220088
-0.0227049
-0.0234434
-0.0241627
-0.0247848
-0.0252973
-0.0192954
-0.0192746
-0.0192908
-0.0193429
-0.0194283
-0.0195481
-0.0197055
-0.0199076
-0.0201655
-0.0204938
-0.0209079
-0.0214185
-0.0220245
-0.0227057
-0.023419
-0.0241033
-0.0246921
-0.0251707
-0.0192832
-0.0192605
-0.0192752
-0.0193277
-0.019415
-0.019538
-0.0196998
-0.0199066
-0.0201688
-0.0205002
-0.0209152
-0.0214241
-0.0220247
-0.0226959
-0.0233947
-0.0240623
-0.0246415
-0.0251153
-0.0192647
-0.0192395
-0.0192524
-0.0193046
-0.0193928
-0.0195178
-0.0196823
-0.0198919
-0.0201562
-0.0204883
-0.0209024
-0.0214082
-0.0220037
-0.0226681
-0.0233598
-0.0240231
-0.0246072
-0.0250917
-0.0192404
-0.0192126
-0.0192234
-0.0192746
-0.0193626
-0.0194879
-0.019653
-0.0198631
-0.0201271
-0.0204575
-0.0208681
-0.0213688
-0.021958
-0.0226159
-0.023303
-0.0239671
-0.0245601
-0.0250579
-0.0192082
-0.0191782
-0.0191861
-0.0192356
-0.0193221
-0.0194463
-0.0196102
-0.0198186
-0.0200799
-0.0204061
-0.0208105
-0.0213029
-0.0218822
-0.0225306
-0.0232111
-0.0238747
-0.0244748
-0.0249825
-0.019159
-0.019127
-0.0191311
-0.0191772
-0.0192603
-0.0193806
-0.0195399
-0.0197426
-0.0199965
-0.0203128
-0.0207042
-0.0211804
-0.0217411
-0.0223706
-0.0230355
-0.0236902
-0.0242894
-0.0248002
-0.0190843
-0.0190506
-0.0190501
-0.0190906
-0.0191669
-0.0192786
-0.0194273
-0.0196172
-0.0198551
-0.0201514
-0.0205177
-0.020963
-0.0214881
-0.0220796
-0.0227087
-0.0233337
-0.0239104
-0.0244032
-0.0189713
-0.0189373
-0.0189318
-0.0189637
-0.0190281
-0.0191238
-0.0192526
-0.0194178
-0.0196256
-0.0198849
-0.0202054
-0.0205952
-0.0210552
-0.0215751
-0.0221308
-0.0226866
-0.0232018
-0.023635
-0.0188027
-0.0187714
-0.0187616
-0.0187816
-0.0188269
-0.0188965
-0.0189915
-0.0191148
-0.0192714
-0.0194679
-0.0197118
-0.0200087
-0.0203594
-0.020756
-0.0211797
-0.0216014
-0.0219845
-0.0223012
-0.0185596
-0.0185359
-0.0185236
-0.0185282
-0.0185465
-0.0185773
-0.0186215
-0.0186811
-0.0187592
-0.0188599
-0.0189877
-0.0191455
-0.0193329
-0.0195441
-0.019766
-0.0199787
-0.0201558
-0.0202702
-0.0182306
-0.0182199
-0.0182075
-0.0181939
-0.0181775
-0.0181576
-0.0181345
-0.0181089
-0.018082
-0.0180552
-0.0180293
-0.0180042
-0.0179778
-0.0179455
-0.0178994
-0.0178286
-0.0177182
-0.0175506
-0.0179186
-0.0179229
-0.0179125
-0.0178835
-0.0178369
-0.0177731
-0.0176924
-0.0175952
-0.0174816
-0.0173517
-0.0172043
-0.0170374
-0.0168476
-0.0166296
-0.016377
-0.0160824
-0.0157373
-0.0153331
-0.0176974
-0.017716
-0.0177092
-0.0176703
-0.017603
-0.0175085
-0.0173872
-0.0172392
-0.0170645
-0.0168625
-0.0166317
-0.0163698
-0.0160735
-0.0157387
-0.0153607
-0.0149348
-0.0144565
-0.0139225
-0.0175398
-0.0175712
-0.0175676
-0.0175211
-0.0174381
-0.0173204
-0.0171683
-0.0169821
-0.0167614
-0.0165054
-0.0162128
-0.0158816
-0.0155092
-0.0150925
-0.0146287
-0.0141151
-0.0135493
-0.0129304
-0.0174406
-0.0174817
-0.0174802
-0.017428
-0.0173336
-0.0171988
-0.017024
-0.0168094
-0.0165544
-0.0162582
-0.0159197
-0.0155372
-0.0151088
-0.0146328
-0.0141077
-0.0135326
-0.0129069
-0.0122313
-0.0173896
-0.017437
-0.0174364
-0.0173807
-0.0172785
-0.0171318
-0.0169408
-0.0167056
-0.0164257
-0.0161002
-0.0157278
-0.0153074
-0.0148377
-0.0143178
-0.0137474
-0.0131272
-0.012458
-0.0117417
-0.0173739
-0.0174247
-0.0174248
-0.0173677
-0.0172611
-0.0171066
-0.0169047
-0.0166553
-0.016358
-0.0160117
-0.0156152
-0.0151674
-0.0146675
-0.0141152
-0.0135112
-0.012857
-0.0121549
-0.0114077
-0.0173805
-0.0174334
-0.017435
-0.0173786
-0.0172702
-0.0171112
-0.0169024
-0.0166439
-0.0163351
-0.0159748
-0.0155618
-0.015095
-0.0145738
-0.0139982
-0.0133693
-0.0126894
-0.0119618
-0.0111902
-0.0173983
-0.017454
-0.0174589
-0.0174051
-0.0172968
-0.0171356
-0.0169231
-0.0166592
-0.0163434
-0.0159744
-0.0155509
-0.0150716
-0.0145359
-0.0139439
-0.013297
-0.0125977
-0.01185
-0.0110585
-0.0174192
-0.0174807
-0.0174916
-0.0174419
-0.0173349
-0.0171733
-0.0169591
-0.0166927
-0.0163733
-0.0159997
-0.0155701
-0.0150832
-0.0145381
-0.013935
-0.0132752
-0.0125613
-0.0117974
-0.010989
-0.0174374
-0.0175096
-0.0175294
-0.0174847
-0.0173797
-0.0172188
-0.0170045
-0.0167376
-0.0164172
-0.0160418
-0.0156096
-0.0151188
-0.0145684
-0.0139581
-0.0132892
-0.0125641
-0.011787
-0.0109638
-0.0174488
-0.0175336
-0.017562
-0.0175216
-0.0174186
-0.0172586
-0.0170449
-0.0167784
-0.0164583
-0.0160829
-0.0156501
-0.0151579
-0.014605
-0.0139909
-0.0133165
-0.0125842
-0.0117979
-0.0109638
-0.0280908
-0.0280545
-0.0280065
-0.0279651
-0.0279426
-0.0279461
-0.0279794
-0.0280436
-0.0281371
-0.0282567
-0.0283984
-0.0285583
-0.0287333
-0.0289218
-0.0291243
-0.0293435
-0.0295839
-0.0298519
-0.0301546
-0.0304997
-0.0308941
-0.0313437
-0.0318524
-0.0324219
-0.0330517
-0.0337381
-0.0344747
-0.0352517
-0.0360557
-0.0368692
-0.0376702
-0.0384322
-0.0391238
-0.0397092
-0.0401487
-0.0403995
-0.0404171
-0.0401569
-0.0395757
-0.0386341
-0.0372984
-0.0355425
-0.0333495
-0.0307135
-0.0276408
-0.0241499
-0.0202727
-0.0160541
-0.0115511
-0.00681695
-0.00193857
0.00300448
0.00792711
0.0127418
0.017362
0.0217049
0.0256937
0.0292601
0.0323456
0.0349037
0.0369002
0.0383143
0.0391385
0.0393783
0.0390516
0.0381875
0.0368251
0.0350122
0.0328031
0.0302569
0.0274349
0.0244015
0.0212207
0.0179545
0.014661
0.0113939
0.00820121
0.00512451
0.00219857
-0.000549058
-0.00309799
-0.0054346
-0.00755149
-0.00944715
-0.0111253
-0.0125939
-0.0138648
-0.0149523
-0.0158727
-0.0166434
-0.0172822
-0.0178071
-0.018235
-0.018582
-0.0188628
-0.0190905
-0.0192762
-0.0194294
-0.0195574
-0.0196658
-0.0197584
-0.0198377
-0.0199046
-0.0199592
-0.0200005
-0.0200274
-0.0200381
-0.0200312
-0.0200052
-0.0199588
-0.0198914
-0.0198025
-0.0196923
-0.0195612
-0.0194103
-0.0192409
-0.0190545
-0.018853
-0.0186384
-0.0184127
-0.0181781
-0.0179364
-0.0176898
-0.0174401
-0.0171888
-0.0169376
-0.0166875
-0.0164399
-0.0161958
-0.0159558
-0.0157206
-0.0154907
-0.0152662
-0.0150475
-0.0148346
-0.0146276
-0.0144262
-0.0142305
-0.0140401
-0.0138549
-0.0136746
-0.0134989
-0.0133274
-0.0131599
-0.0129961
-0.0128355
-0.012678
-0.0125231
-0.0123706
-0.0122202
-0.0120715
-0.0119243
-0.0117783
-0.0116333
-0.011489
-0.0113452
-0.0112017
-0.0110583
-0.0109148
-0.0107711
-0.0106269
-0.0104821
-0.0103366
-0.0101901
-0.0100425
-0.00989372
-0.00974344
-0.00959145
-0.00943741
-0.00928084
-0.0091209
-0.00895623
-0.00878475
-0.00860312
-0.00840752
-0.00819325
-0.00795745
-0.00770632
-0.00743862
-0.0070885
-0.0282322
-0.0281732
-0.0281129
-0.0280703
-0.0280489
-0.0280504
-0.028076
-0.0281255
-0.0281967
-0.0282866
-0.0283918
-0.0285092
-0.0286366
-0.0287738
-0.0289219
-0.0290842
-0.0292655
-0.0294723
-0.0297113
-0.0299896
-0.0303138
-0.0306893
-0.03112
-0.0316083
-0.0321543
-0.0327563
-0.0334101
-0.0341089
-0.0348427
-0.0355976
-0.0363557
-0.0370941
-0.0377848
-0.038395
-0.0388866
-0.0392178
-0.0393434
-0.0392166
-0.038791
-0.0380226
-0.0368722
-0.0353078
-0.0333066
-0.0308573
-0.0279611
-0.0246337
-0.0209048
-0.0168134
-0.012407
-0.00776422
-0.00295134
0.00194539
0.00683682
0.0116328
0.0162446
0.0205872
0.024582
0.0281591
0.0312589
0.0338339
0.0358495
0.0372844
0.0381311
0.0383952
0.0380948
0.0372593
0.0359282
0.0341494
0.0319768
0.0294694
0.0266902
0.0237042
0.0205755
0.0173653
0.0141314
0.0109266
0.00779807
0.00478633
0.00192513
-0.000758894
-0.00324623
-0.00552456
-0.00758733
-0.0094337
-0.0110679
-0.0124982
-0.0137365
-0.0147971
-0.0156961
-0.0164505
-0.0170778
-0.0175952
-0.0180193
-0.0183657
-0.0186483
-0.0188799
-0.0190711
-0.0192308
-0.0193662
-0.0194827
-0.0195837
-0.0196716
-0.0197473
-0.0198107
-0.0198609
-0.0198966
-0.0199162
-0.0199181
-0.0199008
-0.0198631
-0.0198041
-0.0197234
-0.0196211
-0.0194977
-0.0193541
-0.0191915
-0.0190115
-0.018816
-0.0186068
-0.0183862
-0.018156
-0.0179185
-0.0176755
-0.017429
-0.0171805
-0.0169316
-0.0166838
-0.0164381
-0.0161955
-0.0159568
-0.0157226
-0.0154935
-0.0152697
-0.0150514
-0.0148389
-0.0146321
-0.0144309
-0.0142352
-0.0140448
-0.0138595
-0.0136791
-0.0135032
-0.0133315
-0.0131638
-0.0129997
-0.0128389
-0.0126812
-0.0125261
-0.0123733
-0.0122226
-0.0120737
-0.0119263
-0.0117801
-0.0116349
-0.0114905
-0.0113465
-0.0112029
-0.0110594
-0.0109157
-0.0107719
-0.0106276
-0.0104827
-0.0103371
-0.0101906
-0.0100429
-0.00989405
-0.00974369
-0.00959161
-0.00943746
-0.0092807
-0.00912051
-0.00895553
-0.00878367
-0.00860221
-0.00840763
-0.00819609
-0.00796538
-0.00772344
-0.0074664
-0.00713527
-0.0283094
-0.0282312
-0.028156
-0.028108
-0.0280863
-0.0280881
-0.0281117
-0.0281545
-0.0282129
-0.0282824
-0.0283587
-0.0284386
-0.0285202
-0.0286037
-0.0286916
-0.0287885
-0.028901
-0.0290367
-0.029204
-0.0294113
-0.0296665
-0.0299766
-0.0303474
-0.0307836
-0.0312884
-0.031864
-0.0325103
-0.0332253
-0.0340033
-0.0348346
-0.0357038
-0.0365894
-0.0374625
-0.0382872
-0.0390203
-0.0396126
-0.0400102
-0.0401568
-0.0399964
-0.0394756
-0.0385476
-0.0371739
-0.0353275
-0.032995
-0.030179
-0.0268961
-0.0231722
-0.0190471
-0.0145845
-0.00986311
-0.00496277
2.83747e-05
0.00501796
0.00991248
0.0146201
0.0190535
0.0231323
0.0267852
0.0299522
0.0325855
0.0346508
0.0361275
0.037009
0.0373022
0.0370264
0.0362124
0.0349013
0.0331421
0.03099
0.0285053
0.0257517
0.0227949
0.0196996
0.0165275
0.0133367
0.01018
0.00710441
0.00415019
0.00135042
-0.00126908
-0.00368988
-0.00590044
-0.00789555
-0.0096757
-0.0112463
-0.0126169
-0.0138
-0.0148108
-0.0156656
-0.0163819
-0.0169771
-0.0174682
-0.0178717
-0.0182025
-0.0184743
-0.0186991
-0.0188872
-0.0190469
-0.0191848
-0.0193058
-0.0194131
-0.0195084
-0.0195925
-0.0196648
-0.0197245
-0.0197699
-0.0197993
-0.0198108
-0.019803
-0.0197744
-0.0197242
-0.0196518
-0.0195573
-0.0194412
-0.0193043
-0.0191479
-0.0189736
-0.0187832
-0.0185787
-0.0183622
-0.0181359
-0.0179017
-0.0176617
-0.0174178
-0.0171717
-0.0169249
-0.0166788
-0.0164346
-0.0161934
-0.0159558
-0.0157225
-0.0154942
-0.015271
-0.0150533
-0.0148412
-0.0146347
-0.0144337
-0.0142382
-0.0140479
-0.0138626
-0.0136822
-0.0135062
-0.0133345
-0.0131666
-0.0130024
-0.0128415
-0.0126836
-0.0125283
-0.0123754
-0.0122246
-0.0120755
-0.011928
-0.0117817
-0.0116363
-0.0114917
-0.0113477
-0.0112039
-0.0110603
-0.0109166
-0.0107726
-0.0106283
-0.0104833
-0.0103376
-0.010191
-0.0100434
-0.00989443
-0.00974403
-0.00959191
-0.00943769
-0.00928085
-0.00912057
-0.00895556
-0.00878393
-0.00860321
-0.00841047
-0.0082025
-0.00797788
-0.00774555
-0.00750155
-0.00718928
-0.0282584
-0.0281752
-0.0280976
-0.0280527
-0.028038
-0.0280483
-0.0280796
-0.028127
-0.0281842
-0.0282449
-0.0283033
-0.0283553
-0.0283989
-0.0284355
-0.0284693
-0.0285074
-0.0285591
-0.0286358
-0.0287496
-0.0289131
-0.0291384
-0.0294375
-0.0298213
-0.0303005
-0.0308846
-0.0315816
-0.0323973
-0.0333332
-0.0343857
-0.0355436
-0.0367869
-0.0380857
-0.0393995
-0.040678
-0.0418622
-0.0428863
-0.0436809
-0.0441763
-0.0443054
-0.0440081
-0.0432333
-0.0419425
-0.040112
-0.0377348
-0.0348183
-0.0313801
-0.0274575
-0.0231134
-0.0184207
-0.0134582
-0.00831373
-0.00308105
0.0021426
0.00725966
0.0121751
0.0167992
0.0210499
0.0248554
0.0281552
0.0309021
0.0330629
0.0346184
0.0355638
0.0359078
0.035672
0.0348893
0.0336029
0.0318631
0.0297291
0.0272629
0.024528
0.0215911
0.0185184
0.0153727
0.0122131
0.00909319
0.00606058
0.00315582
0.000412017
-0.00214543
-0.00449869
-0.00663709
-0.00855638
-0.0102585
-0.0117506
-0.0130436
-0.0141516
-0.0150909
-0.0158792
-0.0165346
-0.0170752
-0.0175185
-0.017881
-0.0181777
-0.0184218
-0.0186251
-0.0187973
-0.0189461
-0.0190776
-0.0191959
-0.0193036
-0.0194019
-0.0194908
-0.0195694
-0.0196363
-0.0196895
-0.0197268
-0.0197462
-0.0197459
-0.0197243
-0.0196805
-0.0196139
-0.0195246
-0.0194129
-0.0192799
-0.0191268
-0.0189552
-0.0187672
-0.0185647
-0.0183499
-0.018125
-0.017892
-0.0176531
-0.0174102
-0.0171649
-0.0169189
-0.0166735
-0.01643
-0.0161893
-0.0159523
-0.0157196
-0.0154917
-0.015269
-0.0150517
-0.0148399
-0.0146337
-0.014433
-0.0142377
-0.0140477
-0.0138626
-0.0136823
-0.0135064
-0.0133348
-0.0131671
-0.0130029
-0.012842
-0.0126841
-0.0125289
-0.012376
-0.0122252
-0.0120761
-0.0119285
-0.0117822
-0.0116368
-0.0114922
-0.0113481
-0.0112043
-0.0110607
-0.0109169
-0.010773
-0.0106286
-0.0104836
-0.0103379
-0.0101914
-0.0100437
-0.0098948
-0.00974443
-0.00959233
-0.00943817
-0.00928141
-0.00912131
-0.00895668
-0.00878587
-0.00860671
-0.00841673
-0.00821322
-0.0079952
-0.00777073
-0.00753612
-0.00724904
-0.0280593
-0.0279882
-0.0279264
-0.0278997
-0.0279051
-0.0279361
-0.0279867
-0.0280496
-0.0281166
-0.0281793
-0.028231
-0.0282672
-0.028287
-0.0282933
-0.0282936
-0.0282989
-0.0283237
-0.0283848
-0.0285009
-0.0286917
-0.028977
-0.029377
-0.0299115
-0.0305991
-0.0314564
-0.032496
-0.0337251
-0.0351422
-0.0367358
-0.038482
-0.0403435
-0.0422699
-0.0441987
-0.0460574
-0.0477667
-0.049244
-0.0504072
-0.051179
-0.0514896
-0.0512803
-0.0505054
-0.0491347
-0.0471547
-0.0445665
-0.0413841
-0.0376438
-0.0334037
-0.0287302
-0.0236992
-0.0183969
-0.0129174
-0.00736011
-0.0018269
0.00358093
0.00876552
0.0136351
0.0181067
0.0221079
0.0255788
0.0284731
0.0307593
0.0324201
0.0334532
0.0338697
0.0336939
0.032961
0.0317162
0.0300141
0.0279162
0.0254816
0.0227781
0.0198743
0.016837
0.0137304
0.0106145
0.00754392
0.00456702
0.00172481
-0.000949439
-0.0034305
-0.00570106
-0.00775158
-0.00957848
-0.0111851
-0.0125802
-0.0137763
-0.0147893
-0.015637
-0.0163383
-0.0169127
-0.0173792
-0.0177558
-0.0180595
-0.0183053
-0.0185066
-0.0186746
-0.0188187
-0.018946
-0.0190618
-0.0191696
-0.0192711
-0.0193667
-0.0194557
-0.0195365
-0.019607
-0.0196646
-0.0197066
-0.0197307
-0.0197348
-0.0197171
-0.0196765
-0.0196124
-0.0195249
-0.0194143
-0.0192818
-0.0191287
-0.0189569
-0.0187682
-0.0185649
-0.0183492
-0.0181233
-0.0178894
-0.0176497
-0.017406
-0.0171602
-0.0169137
-0.016668
-0.0164243
-0.0161835
-0.0159466
-0.015714
-0.0154863
-0.0152638
-0.0150468
-0.0148354
-0.0146295
-0.0144291
-0.0142341
-0.0140444
-0.0138596
-0.0136796
-0.013504
-0.0133327
-0.0131652
-0.0130013
-0.0128406
-0.0126829
-0.0125278
-0.0123751
-0.0122244
-0.0120754
-0.011928
-0.0117817
-0.0116365
-0.0114919
-0.0113479
-0.0112042
-0.0110606
-0.0109169
-0.010773
-0.0106286
-0.0104837
-0.0103381
-0.0101916
-0.010044
-0.00989515
-0.00974487
-0.00959289
-0.00943887
-0.00928236
-0.00912266
-0.00895879
-0.00878934
-0.00861251
-0.00842621
-0.00822815
-0.00801755
-0.00779982
-0.00757223
-0.00731525
-0.0277012
-0.0276582
-0.0276293
-0.0276353
-0.027673
-0.0277356
-0.0278157
-0.0279045
-0.0279923
-0.0280702
-0.0281311
-0.0281717
-0.0281936
-0.0282035
-0.0282137
-0.0282413
-0.0283079
-0.0284387
-0.0286614
-0.0290056
-0.0295015
-0.0301792
-0.0310671
-0.0321897
-0.0335655
-0.0352039
-0.0371023
-0.0392439
-0.0415961
-0.0441102
-0.046722
-0.0493549
-0.0519225
-0.054333
-0.0564932
-0.0583129
-0.059708
-0.0606039
-0.0609378
-0.0606604
-0.0597373
-0.0581498
-0.0558941
-0.0529817
-0.0494443
-0.045331
-0.0407024
-0.0356298
-0.0301968
-0.0244963
-0.0186285
-0.0126983
-0.00681199
-0.00107458
0.00441333
0.0095582
0.0142761
0.0184946
0.0221548
0.025212
0.0276366
0.0294144
0.0305458
0.0310453
0.0309397
0.030268
0.0290812
0.0274334
0.0253829
0.0229962
0.0203426
0.0174914
0.0145105
0.011465
0.00841601
0.00541892
0.0025226
-0.000231567
-0.00281029
-0.00518867
-0.0073502
-0.0092864
-0.0109951
-0.0124811
-0.0137547
-0.0148303
-0.0157255
-0.0164596
-0.0170531
-0.0175266
-0.0179
-0.0181922
-0.0184204
-0.0185999
-0.018744
-0.0188637
-0.0189678
-0.0190628
-0.0191533
-0.019242
-0.0193296
-0.0194156
-0.0194985
-0.0195758
-0.0196446
-0.0197016
-0.0197437
-0.019768
-0.019772
-0.0197538
-0.0197122
-0.0196465
-0.0195567
-0.0194434
-0.0193078
-0.0191513
-0.0189759
-0.0187836
-0.0185767
-0.0183576
-0.0181286
-0.0178919
-0.0176497
-0.0174039
-0.0171562
-0.0169083
-0.0166615
-0.0164169
-0.0161756
-0.0159382
-0.0157055
-0.0154778
-0.0152555
-0.0150387
-0.0148276
-0.0146221
-0.0144221
-0.0142276
-0.0140383
-0.013854
-0.0136744
-0.0134993
-0.0133283
-0.0131613
-0.0129977
-0.0128374
-0.0126801
-0.0125253
-0.0123729
-0.0122224
-0.0120737
-0.0119265
-0.0117805
-0.0116354
-0.011491
-0.0113471
-0.0112035
-0.0110601
-0.0109165
-0.0107727
-0.0106284
-0.0104836
-0.0103381
-0.0101917
-0.0100442
-0.00989551
-0.00974538
-0.00959359
-0.00943983
-0.00928369
-0.00912461
-0.0089618
-0.00879416
-0.00862025
-0.00843833
-0.00824645
-0.00804376
-0.00783215
-0.0076102
-0.00738332
-0.0271813
-0.0271806
-0.0271995
-0.0272497
-0.0273289
-0.0274313
-0.0275491
-0.0276731
-0.0277937
-0.0279026
-0.0279951
-0.028071
-0.0281364
-0.028204
-0.0282931
-0.0284292
-0.0286433
-0.0289708
-0.0294503
-0.0301221
-0.0310262
-0.0321999
-0.0336744
-0.0354719
-0.0376017
-0.0400569
-0.0428129
-0.0458256
-0.0490331
-0.0523575
-0.0557085
-0.0589883
-0.0620955
-0.0649302
-0.0673974
-0.0694102
-0.0708919
-0.0717778
-0.0720162
-0.0715689
-0.0704122
-0.0685365
-0.0659477
-0.0626706
-0.0587442
-0.0542208
-0.0491663
-0.0436596
-0.0377912
-0.0316609
-0.0253752
-0.0190444
-0.01278
-0.00669073
-0.000880341
0.00455574
0.00953269
0.0139784
0.0178351
0.0210601
0.0236268
0.0255242
0.0267565
0.0273411
0.027311
0.0267106
0.0255881
0.0239989
0.022008
0.019684
0.017097
0.0143173
0.011414
0.00845342
0.00549738
0.00260206
-0.000183233
-0.00281701
-0.00526623
-0.00750669
-0.00952314
-0.0113092
-0.0128645
-0.0141957
-0.0153151
-0.0162393
-0.0169876
-0.0175814
-0.0180424
-0.0183924
-0.0186522
-0.0188412
-0.0189767
-0.0190743
-0.0191467
-0.0192047
-0.0192566
-0.0193081
-0.0193629
-0.0194228
-0.0194876
-0.0195558
-0.0196249
-0.0196915
-0.0197518
-0.0198018
-0.0198378
-0.0198565
-0.0198549
-0.0198309
-0.0197833
-0.0197112
-0.0196148
-0.0194947
-0.0193522
-0.0191888
-0.0190067
-0.0188081
-0.0185953
-0.0183708
-0.0181368
-0.0178958
-0.0176498
-0.0174008
-0.0171506
-0.0169005
-0.0166521
-0.0164063
-0.0161642
-0.0159263
-0.0156934
-0.0154657
-0.0152435
-0.0150271
-0.0148164
-0.0146114
-0.014412
-0.0142181
-0.0140294
-0.0138457
-0.0136668
-0.0134923
-0.013322
-0.0131555
-0.0129925
-0.0128327
-0.0126759
-0.0125216
-0.0123695
-0.0122195
-0.0120712
-0.0119242
-0.0117785
-0.0116337
-0.0114895
-0.0113459
-0.0112025
-0.0110592
-0.0109158
-0.0107722
-0.0106281
-0.0104834
-0.010338
-0.0101917
-0.0100444
-0.00989591
-0.009746
-0.00959447
-0.00944106
-0.00928543
-0.00912715
-0.00896564
-0.00880009
-0.00862943
-0.00845216
-0.00826654
-0.0080715
-0.00786539
-0.00764779
-0.00744668
-0.0265102
-0.0265639
-0.026642
-0.0267442
-0.0268706
-0.0270178
-0.0271794
-0.0273476
-0.027515
-0.0276765
-0.0278317
-0.0279862
-0.028153
-0.0283528
-0.0286141
-0.0289726
-0.0294699
-0.0301524
-0.0310686
-0.0322667
-0.033791
-0.0356779
-0.0379511
-0.0406182
-0.0436667
-0.047063
-0.0507518
-0.054659
-0.0586945
-0.0627576
-0.066742
-0.0705406
-0.0740498
-0.0771728
-0.0798217
-0.081919
-0.0833985
-0.0842055
-0.0842975
-0.0836446
-0.0822297
-0.0800496
-0.0771203
-0.0734705
-0.069142
-0.064193
-0.0586964
-0.0527384
-0.0464167
-0.0398382
-0.0331164
-0.0263681
-0.0197101
-0.0132558
-0.00711241
-0.00137742
0.00386347
0.00853854
0.0125915
0.0159824
0.0186881
0.0207015
0.0220303
0.0227
0.0227479
0.0222159
0.0211564
0.0196315
0.0177084
0.0154571
0.012949
0.010256
0.00744843
0.00459372
0.00175481
-0.00101131
-0.0036548
-0.0061341
-0.00841662
-0.0104791
-0.0123086
-0.0139013
-0.0152596
-0.0163929
-0.0173163
-0.0180493
-0.0186137
-0.0190329
-0.0193304
-0.0195291
-0.0196505
-0.0197142
-0.0197375
-0.0197354
-0.0197203
-0.0197023
-0.0196886
-0.0196842
-0.0196919
-0.0197123
-0.0197443
-0.0197852
-0.0198315
-0.0198788
-0.0199226
-0.0199581
-0.0199809
-0.0199872
-0.0199738
-0.0199384
-0.0198794
-0.0197963
-0.0196889
-0.0195582
-0.0194054
-0.0192323
-0.019041
-0.018834
-0.0186135
-0.0183821
-0.0181422
-0.017896
-0.0176456
-0.017393
-0.0171398
-0.0168876
-0.0166374
-0.0163906
-0.0161477
-0.0159095
-0.0156766
-0.0154491
-0.0152274
-0.0150115
-0.0148015
-0.0145973
-0.0143988
-0.0142058
-0.014018
-0.0138352
-0.0136571
-0.0134834
-0.0133139
-0.0131481
-0.0129859
-0.0128268
-0.0126705
-0.0125168
-0.0123653
-0.0122158
-0.0120679
-0.0119214
-0.011776
-0.0116315
-0.0114877
-0.0113443
-0.0112012
-0.0110581
-0.010915
-0.0107715
-0.0106276
-0.0104831
-0.0103379
-0.0101918
-0.0100447
-0.00989639
-0.00974674
-0.00959553
-0.00944255
-0.00928754
-0.00913019
-0.0089701
-0.00880674
-0.00863929
-0.00846644
-0.00828649
-0.00809806
-0.00789676
-0.00768212
-0.00749994
-0.0257199
-0.0258363
-0.0259806
-0.0261387
-0.0263145
-0.0265092
-0.02672
-0.026943
-0.0271753
-0.0274176
-0.0276762
-0.0279647
-0.0283052
-0.0287283
-0.029273
-0.0299856
-0.030918
-0.0321249
-0.0336606
-0.0355743
-0.0379053
-0.040678
-0.043897
-0.0475443
-0.0515781
-0.0559338
-0.0605271
-0.0652593
-0.0700221
-0.0747043
-0.0791957
-0.0833916
-0.0871948
-0.0905175
-0.0932814
-0.0954179
-0.0968686
-0.0975852
-0.0975304
-0.096678
-0.0950143
-0.0925423
-0.0892817
-0.0852615
-0.0805301
-0.0751521
-0.0692072
-0.0627893
-0.0560039
-0.0489662
-0.0417971
-0.0346208
-0.0275604
-0.0207344
-0.0142537
-0.00821824
-0.0027146
0.00218614
0.00642969
0.00997931
0.0128158
0.0149363
0.0163565
0.0171068
0.0172232
0.0167535
0.0157569
0.0142982
0.0124464
0.0102733
0.00785194
0.00525579
0.00255665
-0.000176592
-0.0028796
-0.00549413
-0.00796945
-0.0102636
-0.0123443
-0.0141894
-0.0157889
-0.0171422
-0.018255
-0.0191408
-0.019819
-0.0203129
-0.0206478
-0.0208502
-0.0209456
-0.0209583
-0.0209105
-0.0208217
-0.0207089
-0.0205862
-0.0204651
-0.0203543
-0.02026
-0.0201859
-0.0201336
-0.0201025
-0.0200903
-0.0200932
-0.0201067
-0.0201254
-0.0201438
-0.0201565
-0.0201586
-0.0201456
-0.0201142
-0.0200616
-0.0199864
-0.0198878
-0.0197658
-0.0196214
-0.0194558
-0.0192709
-0.0190689
-0.0188522
-0.0186233
-0.0183845
-0.0181383
-0.0178868
-0.0176322
-0.0173762
-0.0171205
-0.0168665
-0.0166152
-0.0163676
-0.0161246
-0.0158866
-0.0156541
-0.0154274
-0.0152066
-0.0149917
-0.0147829
-0.0145798
-0.0143825
-0.0141906
-0.014004
-0.0138224
-0.0136454
-0.0134728
-0.0133043
-0.0131395
-0.0129781
-0.0128198
-0.0126644
-0.0125113
-0.0123605
-0.0122116
-0.0120642
-0.0119182
-0.0117733
-0.0116292
-0.0114857
-0.0113427
-0.0111998
-0.011057
-0.0109141
-0.0107708
-0.0106271
-0.0104828
-0.0103378
-0.0101919
-0.010045
-0.00989695
-0.00974759
-0.00959675
-0.00944426
-0.00928991
-0.00913353
-0.00897485
-0.00881353
-0.00864893
-0.00847983
-0.00830447
-0.00812107
-0.00792379
-0.00771086
-0.00754013
-0.0248679
-0.0250507
-0.0252636
-0.0254773
-0.0257019
-0.0259458
-0.0262124
-0.0265038
-0.026824
-0.0271818
-0.0275924
-0.0280793
-0.0286751
-0.0294211
-0.0303668
-0.0315677
-0.0330827
-0.0349698
-0.0372815
-0.0400586
-0.0433252
-0.0470834
-0.0513104
-0.0559582
-0.0609549
-0.0662094
-0.0716169
-0.077065
-0.0824397
-0.0876301
-0.0925315
-0.0970472
-0.101089
-0.104579
-0.107443
-0.109621
-0.111056
-0.111702
-0.111524
-0.110495
-0.108605
-0.105861
-0.102281
-0.0979004
-0.0927722
-0.0869678
-0.0805746
-0.0736943
-0.0664414
-0.0589397
-0.0513187
-0.0437106
-0.0362454
-0.0290473
-0.0222315
-0.0159002
-0.0101408
-0.00502346
-0.000600004
0.00309663
0.0060513
0.00826859
0.00977074
0.010588
0.0107627
0.0103504
0.00941349
0.00801917
0.00623851
0.00414503
0.00181354
-0.000681145
-0.00326551
-0.00586885
-0.00842487
-0.0108734
-0.0131622
-0.0152482
-0.0170989
-0.0186929
-0.0200234
-0.0210931
-0.0219118
-0.0224984
-0.022878
-0.0230792
-0.0231326
-0.0230686
-0.022916
-0.022701
-0.0224467
-0.0221727
-0.021895
-0.0216265
-0.0213771
-0.021154
-0.0209616
-0.020802
-0.0206751
-0.0205791
-0.0205103
-0.0204637
-0.0204336
-0.0204137
-0.0203976
-0.0203792
-0.0203529
-0.0203141
-0.0202588
-0.0201842
-0.0200885
-0.0199711
-0.0198318
-0.0196715
-0.0194917
-0.019294
-0.0190808
-0.0188544
-0.0186171
-0.0183713
-0.0181194
-0.0178634
-0.0176053
-0.0173469
-0.0170896
-0.0168346
-0.0165831
-0.0163358
-0.0160934
-0.0158564
-0.0156251
-0.0153998
-0.0151806
-0.0149674
-0.0147602
-0.0145588
-0.0143631
-0.0141729
-0.0139878
-0.0138076
-0.013632
-0.0134608
-0.0132935
-0.0131298
-0.0129695
-0.0128122
-0.0126576
-0.0125054
-0.0123553
-0.0122071
-0.0120603
-0.0119149
-0.0117704
-0.0116268
-0.0114837
-0.011341
-0.0111985
-0.0110559
-0.0109132
-0.0107702
-0.0106267
-0.0104826
-0.0103378
-0.0101921
-0.0100454
-0.00989759
-0.00974852
-0.00959805
-0.00944604
-0.00929236
-0.00913687
-0.00897945
-0.00881984
-0.00865748
-0.00849119
-0.00831906
-0.00813899
-0.00794487
-0.0077327
-0.00756675
-0.0240368
-0.0242841
-0.0245623
-0.0248282
-0.0250998
-0.0253952
-0.0257258
-0.026102
-0.0265369
-0.0270491
-0.0276645
-0.0284173
-0.029351
-0.030517
-0.0319732
-0.0337811
-0.0360011
-0.0386874
-0.0418819
-0.0456084
-0.0498672
-0.0546325
-0.059852
-0.0654495
-0.0713294
-0.0773836
-0.0834974
-0.0895561
-0.0954487
-0.101071
-0.106328
-0.111132
-0.1154
-0.119059
-0.122041
-0.124283
-0.125731
-0.126336
-0.126063
-0.124885
-0.122793
-0.119796
-0.115913
-0.111185
-0.10567
-0.0994478
-0.0926123
-0.0852744
-0.0775575
-0.0695948
-0.0615254
-0.0534896
-0.0456251
-0.0380622
-0.0309204
-0.0243044
-0.0183022
-0.0129827
-0.00839481
-0.00456739
-0.00150974
0.000791068
0.00235846
0.00322854
0.0034527
0.00309061
0.00220762
0.000873403
-0.000839212
-0.00285535
-0.00509895
-0.00749371
-0.00996427
-0.0124376
-0.0148448
-0.0171229
-0.0192171
-0.0210825
-0.0226854
-0.0240044
-0.0250356
-0.0257841
-0.0262649
-0.0265032
-0.026531
-0.0263844
-0.0261006
-0.025716
-0.025264
-0.0247737
-0.0242698
-0.023772
-0.0232956
-0.0228518
-0.0224485
-0.0220904
-0.0217799
-0.021517
-0.0212997
-0.0211242
-0.0209855
-0.0208773
-0.0207926
-0.0207241
-0.0206645
-0.0206071
-0.0205457
-0.020475
-0.0203909
-0.0202902
-0.0201711
-0.0200325
-0.0198744
-0.0196975
-0.019503
-0.0192928
-0.0190689
-0.0188334
-0.0185888
-0.0183373
-0.018081
-0.0178219
-0.0175618
-0.0173023
-0.0170447
-0.0167902
-0.0165396
-0.0162938
-0.0160532
-0.0158182
-0.0155891
-0.0153661
-0.0151492
-0.0149384
-0.0147335
-0.0145343
-0.0143408
-0.0141526
-0.0139694
-0.0137911
-0.0136172
-0.0134475
-0.0132817
-0.0131194
-0.0129603
-0.0128041
-0.0126505
-0.0124993
-0.01235
-0.0122025
-0.0120564
-0.0119116
-0.0117676
-0.0116245
-0.0114818
-0.0113394
-0.0111972
-0.011055
-0.0109125
-0.0107697
-0.0106264
-0.0104825
-0.0103379
-0.0101923
-0.0100459
-0.00989827
-0.00974946
-0.00959933
-0.00944775
-0.00929464
-0.00913991
-0.00898347
-0.0088251
-0.00866426
-0.00849973
-0.0083295
-0.00815117
-0.00795932
-0.00774734
-0.00758121
-0.0233254
-0.0236291
-0.0239646
-0.024277
-0.0245935
-0.0249434
-0.0253479
-0.0258272
-0.026405
-0.0271109
-0.027982
-0.0290633
-0.0304082
-0.0320762
-0.0341302
-0.0366323
-0.0396383
-0.043191
-0.0473147
-0.0520095
-0.0572485
-0.0629777
-0.0691187
-0.0755741
-0.082234
-0.0889829
-0.0957059
-0.102293
-0.108641
-0.114654
-0.120245
-0.12533
-0.129834
-0.133682
-0.136804
-0.139138
-0.140625
-0.141216
-0.140873
-0.139568
-0.137296
-0.134065
-0.129897
-0.124839
-0.118954
-0.112329
-0.105065
-0.0972829
-0.0891148
-0.080704
-0.072199
-0.0637492
-0.0555001
-0.0475884
-0.0401377
-0.0332555
-0.02703
-0.0215284
-0.0167964
-0.0128586
-0.00971469
-0.00734973
-0.00573534
-0.00482488
-0.00456161
-0.00488219
-0.00571847
-0.00699893
-0.00864978
-0.0105954
-0.0127588
-0.0150623
-0.0174283
-0.0197808
-0.0220476
-0.024162
-0.0260655
-0.0277099
-0.0290594
-0.030092
-0.0308054
-0.0312058
-0.0313139
-0.0311618
-0.0307899
-0.0302429
-0.0295669
-0.0288062
-0.0280004
-0.0271836
-0.0263827
-0.0256185
-0.0249055
-0.0242532
-0.023667
-0.0231488
-0.0226983
-0.0223128
-0.021988
-0.021718
-0.0214959
-0.021314
-0.0211639
-0.0210374
-0.0209261
-0.0208226
-0.0207201
-0.0206128
-0.0204962
-0.0203668
-0.0202223
-0.0200615
-0.0198842
-0.0196908
-0.0194825
-0.0192607
-0.0190275
-0.0187848
-0.0185346
-0.0182792
-0.0180204
-0.0177601
-0.0174998
-0.017241
-0.0169848
-0.0167323
-0.0164842
-0.0162411
-0.0160035
-0.0157717
-0.0155458
-0.0153261
-0.0151123
-0.0149046
-0.0147026
-0.0145064
-0.0143155
-0.0141298
-0.013949
-0.0137729
-0.013601
-0.0134332
-0.013269
-0.0131083
-0.0129506
-0.0127957
-0.0126433
-0.012493
-0.0123447
-0.012198
-0.0120526
-0.0119084
-0.011765
-0.0116223
-0.0114801
-0.0113381
-0.0111962
-0.0110542
-0.010912
-0.0107694
-0.0106263
-0.0104825
-0.010338
-0.0101927
-0.0100464