/*--------------------------------*- C++ -*----------------------------------*\
  =========                 |
  \\      /  F ield         | OpenFOAM: The Open Source CFD Toolbox
   \\    /   O peration     | Website:  https://openfoam.org
    \\  /    A nd           | Version:  8
     \\/     M anipulation  |
\*---------------------------------------------------------------------------*/
FoamFile
{
    version     2.0;
    format      ascii;
    class       surfaceScalarField;
    location    "0.38";
    object      phi;
}
// * * * * * * * * * * * * * * * * * * * * * * * * * * * * * * * * * * * * * //

dimensions      [0 3 -1 0 0 0 0];

internalField   nonuniform List<scalar> 
24170
(
7.80249e-12
-7.80249e-12
2.85132e-11
-2.07107e-11
5.08748e-11
-2.23616e-11
7.34812e-11
-2.26064e-11
1.01228e-10
-2.77464e-11
1.4169e-10
-4.04622e-11
2.03326e-10
-6.16359e-11
2.94042e-10
-9.0716e-11
4.19507e-10
-1.25466e-10
5.81296e-10
-1.61788e-10
7.75481e-10
-1.94185e-10
9.92512e-10
-2.17031e-10
1.219e-09
-2.26488e-10
1.44123e-09
-2.22227e-10
1.64769e-09
-2.06458e-10
1.81112e-09
-1.63433e-10
1.85916e-09
-4.80412e-11
1.58732e-09
2.7184e-10
2.81705e-11
-3.5973e-11
8.96708e-11
-8.2211e-11
1.56729e-10
-8.94195e-11
2.26234e-10
-9.21121e-11
3.13299e-10
-1.14811e-10
4.40863e-10
-1.68026e-10
6.34105e-10
-2.54878e-10
9.15866e-10
-3.72477e-10
1.30154e-09
-5.11137e-10
1.79371e-09
-6.53959e-10
2.37824e-09
-7.78715e-10
3.02373e-09
-8.62525e-10
3.68526e-09
-8.88014e-10
4.31012e-09
-8.47092e-10
4.83488e-09
-7.31211e-10
5.13948e-09
-4.68039e-10
4.78023e-09
3.11212e-10
4.06166e-09
2.30589e-09
5.29391e-11
-8.89121e-11
1.57914e-10
-1.87186e-10
2.72357e-10
-2.03863e-10
3.93058e-10
-2.12812e-10
5.46265e-10
-2.68018e-10
7.71109e-10
-3.92871e-10
1.10986e-09
-5.93632e-10
1.59987e-09
-8.62488e-10
2.2649e-09
-1.17616e-09
3.10635e-09
-1.49541e-09
4.09698e-09
-1.76935e-09
5.17956e-09
-1.9451e-09
6.27088e-09
-1.97933e-09
7.26605e-09
-1.84227e-09
8.02566e-09
-1.49082e-09
8.30368e-09
-7.46056e-10
7.47646e-09
1.13843e-09
6.9173e-09
4.62082e-09
8.05512e-11
-1.69463e-10
2.31752e-10
-3.38387e-10
3.96111e-10
-3.68222e-10
5.71812e-10
-3.88514e-10
7.96824e-10
-4.93029e-10
1.12672e-09
-7.22772e-10
1.62056e-09
-1.08747e-09
2.32911e-09
-1.57103e-09
3.28268e-09
-2.12974e-09
4.47927e-09
-2.692e-09
5.87597e-09
-3.16604e-09
7.38651e-09
-3.45565e-09
8.88439e-09
-3.47721e-09
1.02045e-08
-3.16234e-09
1.11246e-08
-2.41098e-09
1.12995e-08
-9.20922e-10
1.01296e-08
2.30831e-09
9.90178e-09
7.14513e-09
1.10116e-10
-2.7958e-10
3.09959e-10
-5.3823e-10
5.26832e-10
-5.85095e-10
7.61006e-10
-6.22687e-10
1.06214e-09
-7.94163e-10
1.50177e-09
-1.1624e-09
2.15459e-09
-1.74029e-09
3.08306e-09
-2.49951e-09
4.32195e-09
-3.36862e-09
5.8638e-09
-4.23385e-09
7.64844e-09
-4.95069e-09
9.55926e-09
-5.36646e-09
1.14251e-08
-5.34306e-09
1.30209e-08
-4.75816e-09
1.40536e-08
-3.4436e-09
1.41284e-08
-9.95783e-10
1.2761e-08
3.6757e-09
1.28328e-08
9.83e-09
1.41085e-10
-4.20665e-10
3.92107e-10
-7.89251e-10
6.64623e-10
-8.57611e-10
9.60723e-10
-9.18788e-10
1.34088e-09
-1.17432e-09
1.89117e-09
-1.71269e-09
2.69997e-09
-2.54909e-09
3.83904e-09
-3.63858e-09
5.34541e-09
-4.875e-09
7.20479e-09
-6.09323e-09
9.33968e-09
-7.08558e-09
1.16046e-08
-7.63137e-09
1.37874e-08
-7.52589e-09
1.5612e-08
-6.58273e-09
1.67368e-08
-4.5684e-09
1.67641e-08
-1.02305e-09
1.53493e-08
5.09047e-09
1.55677e-08
1.26144e-08
1.73313e-10
-5.93977e-10
4.78815e-10
-1.09475e-09
8.11318e-10
-1.19011e-09
1.17333e-09
-1.2808e-09
1.63417e-09
-1.63516e-09
2.29195e-09
-2.37046e-09
3.2458e-09
-3.50294e-09
4.57395e-09
-4.96673e-09
6.31362e-09
-6.61467e-09
8.4433e-09
-8.22291e-09
1.08702e-08
-9.51245e-09
1.34248e-08
-1.0186e-08
1.58631e-08
-9.96413e-09
1.78733e-08
-8.59298e-09
1.90922e-08
-5.78733e-09
1.9152e-08
-1.08279e-09
1.78382e-08
6.40429e-09
1.79855e-08
1.54203e-08
2.07224e-10
-8.01201e-10
5.72156e-10
-1.45969e-09
9.71127e-10
-1.58909e-09
1.40438e-09
-1.71405e-09
1.94682e-09
-2.17761e-09
2.70486e-09
-3.1285e-09
3.78459e-09
-4.58267e-09
5.26743e-09
-6.44957e-09
7.1891e-09
-8.53633e-09
9.52181e-09
-1.05556e-08
1.21618e-08
-1.21525e-08
1.49242e-08
-1.29484e-08
1.75464e-08
-1.25863e-08
1.97013e-08
-1.07479e-08
2.10293e-08
-7.11535e-09
2.12115e-08
-1.26494e-09
2.01372e-08
7.47857e-09
1.99772e-08
1.81455e-08
2.43877e-10
-1.04508e-09
6.7581e-10
-1.89162e-09
1.15088e-09
-2.06416e-09
1.66303e-09
-2.2262e-09
2.28807e-09
-2.80265e-09
3.13573e-09
-3.97615e-09
4.31434e-09
-5.76127e-09
5.905e-09
-8.04024e-09
7.94079e-09
-1.05721e-08
1.039e-08
-1.30048e-08
1.31446e-08
-1.49071e-08
1.6016e-08
-1.58199e-08
1.874e-08
-1.53103e-08
2.09958e-08
-1.30037e-08
2.24492e-08
-8.56868e-09
2.28376e-08
-1.65342e-09
2.21236e-08
8.1926e-09
2.14425e-08
2.06584e-08
2.84836e-10
-1.32991e-09
7.94762e-10
-2.40154e-09
1.35954e-09
-2.62893e-09
1.96146e-09
-2.82812e-09
2.67118e-09
-3.51238e-09
3.59551e-09
-4.90048e-09
4.83951e-09
-7.00528e-09
6.48032e-09
-9.68105e-09
8.54777e-09
-1.26396e-08
1.10099e-08
-1.54669e-08
1.37631e-08
-1.76603e-08
1.66288e-08
-1.86856e-08
1.93601e-08
-1.80415e-08
2.16633e-08
-1.53069e-08
2.32469e-08
-1.01522e-08
2.39054e-08
-2.31198e-09
2.36468e-08
8.45123e-09
2.2292e-08
2.27972e-08
3.32115e-10
-1.66203e-09
9.34244e-10
-3.00367e-09
1.6063e-09
-3.30099e-09
2.3125e-09
-3.53431e-09
3.11089e-09
-4.31077e-09
4.09804e-09
-5.88763e-09
5.36963e-09
-8.27686e-09
6.99505e-09
-1.13065e-08
9.00076e-09
-1.46453e-08
1.13589e-08
-1.78251e-08
1.39801e-08
-2.02815e-08
1.67109e-08
-2.14164e-08
1.93399e-08
-2.06706e-08
2.16203e-08
-1.75873e-08
2.33158e-08
-1.18477e-08
2.42762e-08
-3.27243e-09
2.45345e-08
8.19297e-09
2.24549e-08
2.43716e-08
3.23772e-10
-1.9858e-09
9.14826e-10
-3.59473e-09
1.5806e-09
-3.96677e-09
2.27084e-09
-4.22456e-09
3.01817e-09
-5.05809e-09
3.89012e-09
-6.75959e-09
4.95526e-09
-9.342e-09
6.26326e-09
-1.26145e-08
7.83378e-09
-1.62158e-08
9.65001e-09
-1.96413e-08
1.16546e-08
-2.22861e-08
1.37481e-08
-2.35099e-08
1.57929e-08
-2.27154e-08
1.76293e-08
-1.94237e-08
1.91081e-08
-1.33265e-08
2.01439e-08
-4.30822e-09
2.07757e-08
7.56123e-09
2.20286e-08
2.1202e-08
4.21589e-10
-2.40739e-09
1.20603e-09
-4.37917e-09
2.09506e-09
-4.85579e-09
3.0046e-09
-5.1341e-09
3.9476e-09
-6.0011e-09
4.97884e-09
-7.79082e-09
6.15756e-09
-1.05207e-08
7.52741e-09
-1.39843e-08
9.10762e-09
-1.7796e-08
1.08896e-08
-2.14233e-08
1.28348e-08
-2.42313e-08
1.48737e-08
-2.55487e-08
1.69068e-08
-2.47486e-08
1.88174e-08
-2.13343e-08
2.04988e-08
-1.50079e-08
2.18987e-08
-5.70811e-09
2.30695e-08
6.3904e-09
2.09043e-08
2.41938e-08
5.471e-10
-2.95449e-09
1.58763e-09
-5.4197e-09
2.77648e-09
-6.04464e-09
3.97732e-09
-6.33494e-09
5.16498e-09
-7.18875e-09
6.36355e-09
-8.98939e-09
7.60812e-09
-1.17653e-08
8.9266e-09
-1.53028e-08
1.03355e-08
-1.92049e-08
1.18415e-08
-2.29292e-08
1.34427e-08
-2.58325e-08
1.51268e-08
-2.72328e-08
1.68689e-08
-2.64907e-08
1.8634e-08
-2.30994e-08
2.03922e-08
-1.67661e-08
2.21468e-08
-7.46271e-09
2.39688e-08
4.56839e-09
1.88561e-08
2.6017e-08
6.96705e-10
-3.6512e-09
2.05162e-09
-6.77462e-09
3.61723e-09
-7.61025e-09
5.18375e-09
-7.90146e-09
6.66326e-09
-8.66827e-09
8.02412e-09
-1.03503e-08
9.25585e-09
-1.2997e-08
1.03563e-08
-1.64033e-08
1.13345e-08
-2.0183e-08
1.22184e-08
-2.38131e-08
1.30612e-08
-2.66753e-08
1.39392e-08
-2.81109e-08
1.4943e-08
-2.74945e-08
1.61666e-08
-2.43229e-08
1.77014e-08
-1.83009e-08
1.96407e-08
-9.40202e-09
2.20919e-08
2.11719e-09
1.57531e-08
2.5195e-08
8.4085e-10
-4.49205e-09
2.51606e-09
-8.44983e-09
4.4831e-09
-9.57729e-09
6.44555e-09
-9.86391e-09
8.22801e-09
-1.04507e-08
9.71461e-09
-1.18368e-08
1.08236e-08
-1.4106e-08
1.15038e-08
-1.70835e-08
1.17461e-08
-2.04254e-08
1.15992e-08
-2.36663e-08
1.11808e-08
-2.62569e-08
1.06768e-08
-2.76069e-08
1.03266e-08
-2.71443e-08
1.03965e-08
-2.43929e-08
1.11497e-08
-1.90541e-08
1.28202e-08
-1.10725e-08
1.55803e-08
-6.42927e-10
1.17347e-08
1.95986e-08
9.01408e-10
-5.39345e-09
2.75492e-09
-1.03033e-08
4.98619e-09
-1.18086e-08
7.22862e-09
-1.21063e-08
9.21054e-09
-1.24327e-08
1.07125e-08
-1.33388e-08
1.15598e-08
-1.49533e-08
1.16324e-08
-1.71561e-08
1.08851e-08
-1.9678e-08
9.37017e-09
-2.21513e-08
7.25454e-09
-2.41413e-08
4.82301e-09
-2.51754e-08
2.4611e-09
-2.47824e-08
6.20557e-10
-2.25523e-08
-2.31996e-10
-1.82015e-08
3.2714e-10
-1.16317e-08
2.63982e-09
-2.9556e-09
7.47072e-09
6.90384e-09
7.45571e-10
-6.13902e-09
2.37379e-09
-1.19316e-08
4.42771e-09
-1.38625e-08
6.54145e-09
-1.42201e-08
8.37899e-09
-1.42702e-08
9.63029e-09
-1.45901e-08
1.00298e-08
-1.53528e-08
9.38135e-09
-1.65076e-08
7.58468e-09
-1.78813e-08
4.66277e-09
-1.92294e-08
7.82533e-10
-2.0261e-08
-3.73576e-09
-2.06571e-08
-8.42562e-09
-2.00925e-08
-1.27055e-08
-1.82724e-08
-1.59362e-08
-1.49708e-08
-1.74955e-08
-1.00724e-08
-1.68565e-08
-3.59464e-09
4.25753e-09
-1.36433e-08
2.20187e-10
-6.35921e-09
8.96551e-10
-1.26079e-08
1.92097e-09
-1.48869e-08
3.063e-09
-1.53621e-08
4.0128e-09
-1.522e-08
4.43995e-09
-1.50173e-08
4.04247e-09
-1.49553e-08
2.58225e-09
-1.50474e-08
-8.64118e-11
-1.52127e-08
-3.99312e-09
-1.53227e-08
-9.03007e-09
-1.52241e-08
-1.49364e-08
-1.47508e-08
-2.12934e-08
-1.37355e-08
-2.7542e-08
-1.20237e-08
-3.30216e-08
-9.49124e-09
-3.70314e-08
-6.06265e-09
-3.88967e-08
-1.7293e-09
3.43996e-09
-3.80791e-08
-3.82782e-10
-5.97643e-09
-9.73282e-10
-1.20174e-08
-1.51537e-09
-1.43448e-08
-1.98821e-09
-1.48893e-08
-2.49782e-09
-1.47104e-08
-3.19495e-09
-1.43201e-08
-4.22917e-09
-1.39211e-08
-5.72155e-09
-1.3555e-08
-7.75051e-09
-1.31837e-08
-1.03413e-08
-1.27319e-08
-1.34573e-08
-1.21081e-08
-1.69926e-08
-1.12155e-08
-2.07676e-08
-9.96049e-09
-2.45313e-08
-8.2601e-09
-2.79715e-08
-6.05101e-09
-3.07352e-08
-3.29895e-09
-3.24583e-08
-6.24066e-12
3.78104e-09
-3.27994e-08
-7.5697e-10
-5.21946e-09
-2.12847e-09
-1.06459e-08
-3.64075e-09
-1.28325e-08
-5.13237e-09
-1.33977e-08
-6.59705e-09
-1.32457e-08
-8.09027e-09
-1.28269e-08
-9.68088e-09
-1.23305e-08
-1.14275e-08
-1.18085e-08
-1.3366e-08
-1.12451e-08
-1.5504e-08
-1.05939e-08
-1.78157e-08
-9.79639e-09
-2.02388e-08
-8.79235e-09
-2.26727e-08
-7.52661e-09
-2.49785e-08
-5.95426e-09
-2.6984e-08
-4.04555e-09
-2.84923e-08
-1.79067e-09
-2.92959e-08
7.97334e-10
3.67998e-09
-2.91948e-08
-9.90473e-10
-4.22899e-09
-2.85387e-09
-8.78252e-09
-4.98983e-09
-1.06966e-08
-7.15268e-09
-1.12348e-08
-9.26282e-09
-1.11356e-08
-1.13117e-08
-1.07781e-08
-1.33152e-08
-1.03269e-08
-1.52908e-08
-9.83289e-09
-1.72456e-08
-9.29034e-09
-1.91715e-08
-8.66812e-09
-2.1042e-08
-7.9258e-09
-2.28118e-08
-7.02256e-09
-2.44157e-08
-5.92277e-09
-2.577e-08
-4.59997e-09
-2.67756e-08
-3.03994e-09
-2.7323e-08
-1.24322e-09
-2.72994e-08
7.73763e-10
2.97828e-09
-2.65977e-08
-1.0632e-09
-3.16578e-09
-3.10226e-09
-6.74347e-09
-5.48525e-09
-8.31357e-09
-7.93398e-09
-8.78608e-09
-1.03312e-08
-8.73839e-09
-1.26339e-08
-8.47534e-09
-1.48301e-08
-8.13075e-09
-1.69155e-08
-7.74749e-09
-1.88823e-08
-7.32353e-09
-2.07138e-08
-6.83659e-09
-2.23824e-08
-6.25718e-09
-2.38492e-08
-5.55582e-09
-2.50645e-08
-4.70744e-09
-2.597e-08
-3.69445e-09
-2.65011e-08
-2.50885e-09
-2.65907e-08
-1.15362e-09
-2.61736e-08
3.56672e-10
1.99567e-09
-2.5191e-08
-9.9098e-10
-2.17481e-09
-2.92937e-09
-4.80508e-09
-5.23216e-09
-6.01079e-09
-7.62674e-09
-6.39149e-09
-9.9853e-09
-6.37983e-09
-1.22527e-08
-6.20791e-09
-1.44065e-08
-5.97699e-09
-1.64346e-08
-5.71942e-09
-1.83241e-08
-5.43396e-09
-2.00564e-08
-5.10431e-09
-2.16047e-08
-4.70886e-09
-2.29345e-08
-4.22602e-09
-2.40045e-08
-3.63748e-09
-2.47685e-08
-2.93045e-09
-2.51781e-08
-2.0992e-09
-2.51858e-08
-1.14593e-09
-2.4748e-08
-8.11284e-11
1.07578e-09
-2.38281e-08
-8.21383e-10
-1.35342e-09
-2.47458e-09
-3.15188e-09
-4.47484e-09
-4.01052e-09
-6.57766e-09
-4.28867e-09
-8.66263e-09
-4.29486e-09
-1.06765e-08
-4.19407e-09
-1.25967e-08
-4.05673e-09
-1.44114e-08
-3.90476e-09
-1.61085e-08
-3.73686e-09
-1.76713e-08
-3.54147e-09
-1.90768e-08
-3.3034e-09
-2.02954e-08
-3.00743e-09
-2.12924e-08
-2.64049e-09
-2.20296e-08
-2.19317e-09
-2.2468e-08
-1.66082e-09
-2.25698e-08
-1.04415e-09
-2.23015e-08
-3.49447e-10
4.10317e-10
-2.1636e-08
-6.09871e-10
-7.43551e-10
-1.8933e-09
-1.86845e-09
-3.4806e-09
-2.42322e-09
-5.16597e-09
-2.6033e-09
-6.84709e-09
-2.61374e-09
-8.48008e-09
-2.56108e-09
-1.00475e-08
-2.48933e-09
-1.15407e-08
-2.41158e-09
-1.2951e-08
-2.32651e-09
-1.42659e-08
-2.22655e-09
-1.54674e-08
-2.10191e-09
-1.65321e-08
-1.94274e-09
-1.74322e-08
-1.74039e-09
-1.8137e-08
-1.48838e-09
-1.86147e-08
-1.1831e-09
-1.88347e-08
-8.24181e-10
-1.87695e-08
-4.14655e-10
3.78767e-11
-1.8397e-08
-4.01904e-10
-3.41647e-10
-1.30922e-09
-9.61138e-10
-2.46064e-09
-1.2718e-09
-3.69345e-09
-1.3705e-09
-4.92893e-09
-1.37826e-09
-6.13548e-09
-1.35454e-09
-7.3019e-09
-1.32291e-09
-8.42351e-09
-1.28997e-09
-9.49536e-09
-1.25466e-09
-1.05093e-08
-1.21265e-09
-1.14527e-08
-1.15847e-09
-1.23089e-08
-1.08656e-09
-1.30573e-08
-9.91969e-10
-1.36749e-08
-8.70792e-10
-1.41374e-08
-7.20612e-10
-1.44209e-08
-5.40713e-10
-1.45034e-08
-3.32105e-10
-9.8421e-11
-1.43671e-08
-2.26384e-10
-1.15264e-10
-7.98744e-10
-3.88778e-10
-1.5461e-09
-5.24444e-10
-2.35093e-09
-5.65665e-10
-3.15995e-09
-5.69242e-10
-3.9536e-09
-5.60889e-10
-4.72615e-09
-5.50357e-10
-5.47596e-09
-5.40162e-10
-6.20094e-09
-5.29681e-10
-6.8966e-09
-5.16984e-10
-7.55539e-09
-4.99676e-10
-8.16664e-09
-4.75311e-10
-8.71696e-09
-4.41657e-10
-9.19086e-09
-3.9689e-10
-9.5717e-09
-3.39771e-10
-9.84266e-09
-2.69752e-10
-9.98784e-09
-1.86923e-10
-9.24323e-11
-9.99383e-09
-9.69582e-11
-1.83054e-11
-3.96411e-10
-8.93246e-11
-7.98279e-10
-1.22576e-10
-1.23197e-09
-1.31974e-10
-1.66844e-09
-1.32772e-10
-2.09817e-09
-1.31159e-10
-2.51915e-09
-1.29373e-10
-2.93139e-09
-1.27925e-10
-3.33446e-09
-1.26611e-10
-3.7265e-09
-1.24943e-10
-4.10385e-09
-1.22326e-10
-4.46101e-09
-1.18148e-10
-4.79083e-09
-1.11839e-10
-5.08481e-09
-1.02914e-10
-5.33357e-09
-9.10131e-11
-5.52738e-09
-7.59412e-11
-5.65671e-09
-5.75861e-11
-3.59679e-11
-5.71318e-09
-1.83054e-11
-1.0763e-10
-2.30206e-10
-3.6218e-10
-4.94952e-10
-6.2611e-10
-7.55484e-10
-8.83408e-10
-1.01002e-09
-1.13496e-09
-1.25729e-09
-1.37544e-09
-1.48728e-09
-1.59019e-09
-1.6812e-09
-1.75714e-09
-1.81473e-09
-1.8507e-09
2.7569e-11
-2.7569e-11
2.1485e-10
-1.87281e-10
5.87097e-10
-3.72247e-10
1.11883e-09
-5.31736e-10
1.76264e-09
-6.43808e-10
2.46104e-09
-6.98402e-10
3.15437e-09
-6.9333e-10
3.78689e-09
-6.3252e-10
4.31144e-09
-5.24552e-10
4.69254e-09
-3.81093e-10
4.90778e-09
-2.15242e-10
4.94766e-09
-3.98778e-11
4.8134e-09
1.34258e-10
4.5146e-09
2.98803e-10
4.06449e-09
4.50108e-10
3.47598e-09
5.88507e-10
2.75749e-09
7.18489e-10
1.90965e-09
8.47843e-10
9.23228e-10
9.86423e-10
-2.21459e-10
1.14469e-09
-1.55381e-09
1.33235e-09
-3.11096e-09
1.55715e-09
-4.93487e-09
1.82391e-09
-7.06941e-09
2.13454e-09
-9.55761e-09
2.4882e-09
-1.24392e-08
2.88163e-09
-1.57488e-08
3.30961e-09
-1.95141e-08
3.76521e-09
-2.37539e-08
4.23987e-09
-2.84773e-08
4.72339e-09
-3.36811e-08
5.20384e-09
-3.93487e-08
5.66759e-09
-4.54482e-08
6.09951e-09
-5.19316e-08
6.48333e-09
-5.87338e-08
6.80226e-09
-6.57735e-08
7.03968e-09
-7.29535e-08
7.17998e-09
-8.01629e-08
7.20937e-09
-8.72796e-08
7.1167e-09
-9.41737e-08
6.89415e-09
-1.00711e-07
6.53773e-09
-1.06759e-07
6.04762e-09
-1.12187e-07
5.42827e-09
-1.16876e-07
4.68825e-09
-1.20715e-07
3.83968e-09
-1.23613e-07
2.89778e-09
-1.25494e-07
1.88074e-09
-1.26301e-07
8.07704e-10
-1.26019e-07
-2.82024e-10
-1.24602e-07
-1.41713e-09
-1.22087e-07
-2.51568e-09
-1.18508e-07
-3.5783e-09
-1.13924e-07
-4.58449e-09
-1.08408e-07
-5.51615e-09
-1.0205e-07
-6.35794e-09
-9.49525e-08
-7.09724e-09
-8.72283e-08
-7.72416e-09
-7.89967e-08
-8.23162e-09
-7.03815e-08
-8.61524e-09
-6.15082e-08
-8.87325e-09
-5.25018e-08
-9.00641e-09
-4.34841e-08
-9.01773e-09
-3.45717e-08
-8.91235e-09
-2.58745e-08
-8.69726e-09
-1.74934e-08
-8.38106e-09
-9.51973e-09
-7.97368e-09
-2.03364e-09
-7.4861e-09
4.89662e-09
-6.93025e-09
1.12163e-08
-6.3197e-09
1.68837e-08
-5.66742e-09
2.18671e-08
-4.98335e-09
2.61491e-08
-4.28201e-09
2.97262e-08
-3.57711e-09
3.26074e-08
-2.88121e-09
3.48132e-08
-2.20578e-09
3.63744e-08
-1.56118e-09
3.73308e-08
-9.56373e-10
3.77296e-08
-3.98812e-10
3.76239e-08
1.05677e-10
3.7071e-08
5.52903e-10
3.61304e-08
9.40608e-10
3.48618e-08
1.26855e-09
3.33244e-08
1.53746e-09
3.15749e-08
1.74944e-09
2.96671e-08
1.90784e-09
2.76501e-08
2.01702e-09
2.5568e-08
2.08205e-09
2.34595e-08
2.10848e-09
2.13575e-08
2.10208e-09
1.92888e-08
2.06865e-09
1.7275e-08
2.01384e-09
1.53319e-08
1.94304e-09
1.34707e-08
1.86122e-09
1.16978e-08
1.77287e-09
1.00159e-08
1.68192e-09
8.42427e-09
1.59165e-09
6.91962e-09
1.50465e-09
5.49687e-09
1.42275e-09
4.14983e-09
1.34705e-09
2.87191e-09
1.27792e-09
1.65679e-09
1.21512e-09
4.98912e-10
1.15788e-09
-6.06282e-10
1.10519e-09
-1.66199e-09
1.0557e-09
-2.66981e-09
1.00783e-09
-3.63009e-09
9.60275e-10
-4.54212e-09
9.1203e-10
-5.40448e-09
8.62362e-10
-6.21532e-09
8.10836e-10
-6.97264e-09
7.57319e-10
-7.67457e-09
7.01938e-10
-8.31962e-09
6.45046e-10
-8.90678e-09
5.87161e-10
-9.4357e-09
5.28913e-10
-9.90668e-09
4.70988e-10
-1.03208e-08
4.14079e-10
-1.06796e-08
3.58849e-10
-1.09855e-08
3.05892e-10
-1.12412e-08
2.5572e-10
-1.145e-08
2.08742e-10
-1.16152e-08
1.65262e-10
-1.17407e-08
1.25478e-10
-1.18302e-08
8.94882e-11
-1.18875e-08
5.73015e-11
-1.19163e-08
2.88371e-11
-1.19206e-08
4.28531e-12
-1.19032e-08
-1.73977e-11
-1.18676e-08
-3.56316e-11
-1.18168e-08
-5.0755e-11
-1.17536e-08
-6.32382e-11
-1.16803e-08
-7.32857e-11
-1.15992e-08
-8.11424e-11
-1.15121e-08
-8.70583e-11
-1.14208e-08
-9.12745e-11
-1.13268e-08
-9.40176e-11
-1.12313e-08
-9.54984e-11
-1.11354e-08
-9.59102e-11
-1.104e-08
-9.54302e-11
-1.09458e-08
-9.42167e-11
-1.08533e-08
-9.24117e-11
-1.07632e-08
-9.01407e-11
-1.06757e-08
-8.75132e-11
-1.05911e-08
-8.46252e-11
-1.05095e-08
-8.15586e-11
-1.04311e-08
-7.83846e-11
-1.0356e-08
-7.51633e-11
-1.0284e-08
-7.1946e-11
-1.02152e-08
-6.87754e-11
-1.01496e-08
-6.56867e-11
-1.00868e-08
-6.27074e-11
-1.0027e-08
-5.9859e-11
-9.96983e-09
-5.71578e-11
-9.91522e-09
-5.46148e-11
-9.86298e-09
-5.22363e-11
-9.81296e-09
-5.00254e-11
-9.76497e-09
-4.79815e-11
-9.71887e-09
-4.61015e-11
-9.67449e-09
-4.43794e-11
-9.63169e-09
-4.28074e-11
-9.59031e-09
-4.13753e-11
-9.55024e-09
-4.00718e-11
-9.51136e-09
-3.88826e-11
-9.47357e-09
-3.77914e-11
-9.43679e-09
-3.67747e-11
-9.40099e-09
-3.57967e-11
-9.3662e-09
-3.47919e-11
-9.33257e-09
-3.36341e-11
-9.30048e-09
-3.20886e-11
-9.27073e-09
-2.97537e-11
-9.24469e-09
-2.60383e-11
-9.2244e-09
-2.02836e-11
-9.21219e-09
-1.2217e-11
-9.20979e-09
-2.397e-12
-9.2152e-09
5.40637e-12
-9.2199e-09
4.70148e-12
-9.20272e-09
-1.71823e-11
-9.12536e-09
-7.73589e-11
-8.93096e-09
-1.94401e-10
-8.50965e-09
-4.21302e-10
-1.0865e-09
-7.42315e-09
2.28452e-10
-2.5602e-10
8.63892e-10
-8.22721e-10
1.84908e-09
-1.35743e-09
3.10307e-09
-1.78573e-09
4.52133e-09
-2.06206e-09
5.98573e-09
-2.1628e-09
7.37494e-09
-2.08255e-09
8.5738e-09
-1.83137e-09
9.48103e-09
-1.43179e-09
1.00149e-08
-9.14953e-10
1.0116e-08
-3.16394e-10
9.74756e-09
3.2861e-10
8.8924e-09
9.89416e-10
7.5475e-09
1.6437e-09
5.71729e-09
2.28032e-09
3.4055e-09
2.9003e-09
6.07652e-10
3.51634e-09
-2.69495e-09
4.15044e-09
-6.5388e-09
4.83028e-09
-1.09789e-08
5.58475e-09
-1.6086e-08
6.43948e-09
-2.19421e-08
7.41324e-09
-2.86336e-08
8.51543e-09
-3.62442e-08
9.74517e-09
-4.48476e-08
1.10915e-08
-5.45005e-08
1.25345e-08
-6.52371e-08
1.40463e-08
-7.70638e-08
1.55919e-08
-8.99543e-08
1.71304e-08
-1.03846e-07
1.86155e-08
-1.18639e-07
1.99969e-08
-1.34194e-07
2.12217e-08
-1.5033e-07
2.22364e-08
-1.66837e-07
2.29899e-08
-1.8347e-07
2.34357e-08
-1.99966e-07
2.35348e-08
-2.16044e-07
2.32579e-08
-2.31421e-07
2.25871e-08
-2.45821e-07
2.15164e-08
-2.58979e-07
2.00525e-08
-2.70655e-07
1.82138e-08
-2.80637e-07
1.60295e-08
-2.88747e-07
1.35378e-08
-2.94843e-07
1.07845e-08
-2.98824e-07
7.82046e-09
-3.00626e-07
4.69993e-09
-3.00224e-07
1.4783e-09
-2.97633e-07
-1.78342e-09
-2.92892e-07
-5.0228e-09
-2.86125e-07
-8.1843e-09
-2.77424e-07
-1.1216e-08
-2.66926e-07
-1.40765e-08
-2.54782e-07
-1.67285e-08
-2.41159e-07
-1.91394e-08
-2.26234e-07
-2.12824e-08
-2.10195e-07
-2.3136e-08
-1.93236e-07
-2.46841e-08
-1.75551e-07
-2.59162e-08
-1.57339e-07
-2.68268e-08
-1.38797e-07
-2.74155e-08
-1.20117e-07
-2.76865e-08
-1.01486e-07
-2.76484e-08
-8.3085e-08
-2.73137e-08
-6.50837e-08
-2.66986e-08
-4.76425e-08
-2.58222e-08
-3.09096e-08
-2.47066e-08
-1.50198e-08
-2.33759e-08
-9.38195e-11
-2.18563e-08
1.37611e-08
-2.01747e-08
2.64539e-08
-1.83602e-08
3.79157e-08
-1.64452e-08
4.80956e-08
-1.44619e-08
5.69605e-08
-1.2442e-08
6.4496e-08
-1.04167e-08
7.0706e-08
-8.41574e-09
7.56125e-08
-6.46775e-09
7.92553e-08
-4.59911e-09
8.169e-08
-2.83352e-09
8.29871e-08
-1.19148e-09
8.32296e-08
3.10474e-10
8.25112e-08
1.65897e-09
8.09331e-08
2.84666e-09
7.86013e-08
3.86922e-09
7.56245e-08
4.72627e-09
7.21108e-08
5.42156e-09
6.81654e-08
5.96244e-09
6.38883e-08
6.35914e-09
5.93725e-08
6.62425e-09
5.47025e-08
6.77206e-09
4.99532e-08
6.81794e-09
4.51893e-08
6.77777e-09
4.04649e-08
6.66746e-09
3.58237e-08
6.50243e-09
3.12993e-08
6.29726e-09
2.6916e-08
6.06524e-09
2.26896e-08
5.81804e-09
1.86288e-08
5.56538e-09
1.47367e-08
5.31483e-09
1.10121e-08
5.07165e-09
7.4512e-09
4.83886e-09
4.04891e-09
4.61741e-09
8.00207e-10
4.40658e-09
-2.29924e-09
4.20464e-09
-5.25216e-09
4.00862e-09
-8.05921e-09
3.81488e-09
-1.07194e-08
3.62043e-09
-1.32303e-08
3.42294e-09
-1.55888e-08
3.22091e-09
-1.77916e-08
3.01366e-09
-1.98357e-08
2.80133e-09
-2.17185e-08
2.58482e-09
-2.34391e-08
2.3656e-09
-2.49975e-08
2.14558e-09
-2.63955e-08
1.92692e-09
-2.76364e-08
1.71187e-09
-2.8725e-08
1.50267e-09
-2.96675e-08
1.30134e-09
-3.04713e-08
1.1097e-09
-3.11448e-08
9.29228e-10
-3.16971e-08
7.61081e-10
-3.21379e-08
6.06058e-10
-3.24771e-08
4.64624e-10
-3.27245e-08
3.36932e-10
-3.28901e-08
2.22856e-10
-3.29833e-08
1.22049e-10
-3.3013e-08
3.40127e-11
-3.29883e-08
-4.20764e-11
-3.29169e-08
-1.0703e-10
-3.28062e-08
-1.61475e-10
-3.2663e-08
-2.06504e-10
-3.24932e-08
-2.4301e-10
-3.23025e-08
-2.7188e-10
-3.20956e-08
-2.93977e-10
-3.18767e-08
-3.10129e-10
-3.16496e-08
-3.21111e-10
-3.14175e-08
-3.27644e-10
-3.1183e-08
-3.30392e-10
-3.09485e-08
-3.29958e-10
-3.07158e-08
-3.26889e-10
-3.04865e-08
-3.21674e-10
-3.02619e-08
-3.14748e-10
-3.00429e-08
-3.06493e-10
-2.98303e-08
-2.97246e-10
-2.96246e-08
-2.87298e-10
-2.94261e-08
-2.76902e-10
-2.9235e-08
-2.66273e-10
-2.90513e-08
-2.55594e-10
-2.88751e-08
-2.45019e-10
-2.87061e-08
-2.34675e-10
-2.85441e-08
-2.24663e-10
-2.83889e-08
-2.15062e-10
-2.82401e-08
-2.05935e-10
-2.80974e-08
-1.97323e-10
-2.79604e-08
-1.89255e-10
-2.78287e-08
-1.81747e-10
-2.77019e-08
-1.74801e-10
-2.75796e-08
-1.68412e-10
-2.74614e-08
-1.62565e-10
-2.7347e-08
-1.57239e-10
-2.72359e-08
-1.52406e-10
-2.7128e-08
-1.48033e-10
-2.70228e-08
-1.44078e-10
-2.69201e-08
-1.40493e-10
-2.68196e-08
-1.37208e-10
-2.67213e-08
-1.34109e-10
-2.66251e-08
-1.30985e-10
-2.65313e-08
-1.27433e-10
-2.64407e-08
-1.22712e-10
-2.63549e-08
-1.15579e-10
-2.62766e-08
-1.0429e-10
-2.62098e-08
-8.70747e-11
-2.61584e-08
-6.36164e-11
-2.6123e-08
-3.77951e-11
-2.60956e-08
-2.20368e-11
-2.60502e-08
-4.06909e-11
-2.59339e-08
-1.33521e-10
-2.56573e-08
-3.53898e-10
-2.50861e-08
-7.65649e-10
-2.40222e-08
-1.48518e-09
-2.89741e-09
-2.22113e-08
3.56674e-10
-6.12695e-10
1.27822e-09
-1.74427e-09
2.62346e-09
-2.70268e-09
4.24533e-09
-3.40759e-09
5.98663e-09
-3.80336e-09
7.68463e-09
-3.8608e-09
9.1787e-09
-3.57662e-09
1.03185e-08
-2.97122e-09
1.09714e-08
-2.08465e-09
1.10272e-08
-9.70725e-10
1.04007e-08
3.10086e-10
9.03111e-09
1.69821e-09
6.87798e-09
3.14254e-09
3.91475e-09
4.60693e-09
1.20335e-10
6.07473e-09
-4.52932e-09
7.54995e-09
-1.0069e-08
9.05603e-09
-1.65498e-08
1.06312e-08
-2.40407e-08
1.23212e-08
-3.26268e-08
1.41708e-08
-4.24028e-08
1.62155e-08
-5.34643e-08
1.84748e-08
-6.5897e-08
2.09481e-08
-7.9765e-08
2.36132e-08
-9.51008e-08
2.64274e-08
-1.11896e-07
2.93293e-08
-1.30092e-07
3.22423e-08
-1.49578e-07
3.50777e-08
-1.70185e-07
3.7738e-08
-1.91691e-07
4.01216e-08
-2.13821e-07
4.21269e-08
-2.36257e-07
4.36579e-08
-2.5865e-07
4.4629e-08
-2.8063e-07
4.49703e-08
-3.01826e-07
4.46307e-08
-3.21872e-07
4.3581e-08
-3.40428e-07
4.18146e-08
-3.57188e-07
3.93469e-08
-3.71886e-07
3.62142e-08
-3.84303e-07
3.247e-08
-3.94273e-07
2.81829e-08
-4.01675e-07
2.3432e-08
-4.06441e-07
1.83039e-08
-4.08546e-07
1.28896e-08
-4.08007e-07
7.28079e-09
-4.04875e-07
1.56846e-09
-3.99246e-07
-4.15113e-09
-3.91249e-07
-9.78037e-09
-3.81025e-07
-1.52461e-08
-3.68726e-07
-2.0484e-08
-3.54509e-07
-2.54332e-08
-3.38545e-07
-3.00398e-08
-3.21016e-07
-3.42572e-08
-3.0211e-07
-3.8046e-08
-2.82019e-07
-4.13737e-08
-2.60939e-07
-4.42156e-08
-2.3907e-07
-4.65536e-08
-2.16609e-07
-4.83771e-08
-1.93753e-07
-4.96821e-08
-1.70698e-07
-5.0471e-08
-1.47632e-07
-5.07527e-08
-1.24739e-07
-5.05415e-08
-1.02195e-07
-4.98572e-08
-8.01695e-08
-4.87243e-08
-5.88203e-08
-4.71714e-08
-3.82957e-08
-4.52311e-08
-1.87331e-08
-4.29385e-08
-2.58697e-10
-4.03307e-08
1.7012e-08
-3.74453e-08
3.29824e-08
-3.43306e-08
4.75732e-08
-3.1036e-08
6.07205e-08
-2.76092e-08
7.23761e-08
-2.40976e-08
8.2508e-08
-2.05486e-08
9.11018e-08
-1.70095e-08
9.81604e-08
-1.35264e-08
1.03705e-07
-1.01434e-08
1.07773e-07
-6.90169e-09
1.1042e-07
-3.83856e-09
1.11717e-07
-9.86418e-10
1.11748e-07
1.62768e-09
1.10611e-07
3.98413e-09
1.08411e-07
6.06865e-09
1.05264e-07
7.87311e-09
1.01289e-07
9.3966e-09
9.66073e-08
1.06445e-08
9.13384e-08
1.1628e-08
8.55996e-08
1.2363e-08
7.95023e-08
1.28694e-08
7.31502e-08
1.31701e-08
6.66379e-08
1.32901e-08
6.00495e-08
1.32558e-08
5.34583e-08
1.30936e-08
4.69259e-08
1.28297e-08
4.05026e-08
1.24886e-08
3.42277e-08
1.20929e-08
2.81308e-08
1.16623e-08
2.22328e-08
1.12129e-08
1.65475e-08
1.0757e-08
1.10836e-08
1.03027e-08
5.84643e-09
9.8546e-09
8.39044e-10
9.41396e-09
-3.9362e-09
8.97989e-09
-8.47694e-09
8.54936e-09
-1.27801e-08
8.11801e-09
-1.68417e-08
7.68205e-09
-2.06576e-08
7.23881e-09
-2.42236e-08
6.78692e-09
-2.75363e-08
6.32643e-09
-3.05937e-08
5.85869e-09
-3.33951e-08
5.38624e-09
-3.5942e-08
4.91249e-09
-3.82379e-08
4.44149e-09
-4.02886e-08
3.97757e-09
-4.21018e-08
3.52507e-09
-4.36872e-08
3.08814e-09
-4.50564e-08
2.67048e-09
-4.62219e-08
2.27526e-09
-4.71977e-08
1.90499e-09
-4.79981e-08
1.56153e-09
-4.86381e-08
1.24604e-09
-4.91326e-08
9.59081e-10
-4.94963e-08
7.00618e-10
-4.97435e-08
4.70119e-10
-4.98881e-08
2.66649e-10
-4.9943e-08
8.89348e-11
-4.99205e-08
-6.45759e-11
-4.9832e-08
-1.95542e-10
-4.96878e-08
-3.05748e-10
-4.94972e-08
-3.97068e-10
-4.92689e-08
-4.71343e-10
-4.90104e-08
-5.30371e-10
-4.87285e-08
-5.75879e-10
-4.84291e-08
-6.09507e-10
-4.81174e-08
-6.32792e-10
-4.77979e-08
-6.47162e-10
-4.74744e-08
-6.53926e-10
-4.715e-08
-6.5428e-10
-4.68276e-08
-6.49301e-10
-4.65093e-08
-6.39961e-10
-4.6197e-08
-6.27122e-10
-4.58919e-08
-6.11548e-10
-4.55953e-08
-5.93911e-10
-4.53078e-08
-5.74796e-10
-4.50299e-08
-5.5471e-10
-4.47621e-08
-5.34087e-10
-4.45044e-08
-5.13299e-10
-4.42568e-08
-4.92657e-10
-4.4019e-08
-4.72418e-10
-4.37909e-08
-4.52792e-10
-4.3572e-08
-4.33942e-10
-4.3362e-08
-4.15998e-10
-4.31602e-08
-3.99051e-10
-4.29663e-08
-3.83164e-10
-4.27797e-08
-3.68373e-10
-4.25998e-08
-3.54694e-10
-4.24261e-08
-3.42121e-10
-4.2258e-08
-3.30634e-10
-4.20951e-08
-3.20199e-10
-4.19367e-08
-3.10773e-10
-4.17824e-08
-3.02299e-10
-4.16318e-08
-2.94714e-10
-4.14844e-08
-2.87934e-10
-4.13397e-08
-2.81841e-10
-4.11976e-08
-2.76235e-10
-4.10579e-08
-2.7074e-10
-4.09207e-08
-2.64632e-10
-4.07868e-08
-2.56591e-10
-4.06579e-08
-2.4446e-10
-4.05369e-08
-2.2534e-10
-4.04273e-08
-1.96645e-10
-4.03319e-08
-1.59031e-10
-4.02479e-08
-1.2179e-10
-4.01596e-08
-1.10308e-10
-4.00277e-08
-1.72554e-10
-3.97797e-08
-3.81564e-10
-3.93018e-08
-8.31748e-10
-3.84345e-08
-1.63296e-09
-3.70237e-08
-2.89601e-09
-4.86974e-09
-3.50514e-08
3.96416e-10
-1.00911e-09
1.39551e-09
-2.74336e-09
2.80506e-09
-4.11223e-09
4.42699e-09
-5.02952e-09
6.05971e-09
-5.43608e-09
7.50373e-09
-5.30483e-09
8.56879e-09
-4.64168e-09
9.08094e-09
-3.48337e-09
8.88821e-09
-1.89192e-09
7.86387e-09
5.36093e-11
5.90695e-09
2.26701e-09
2.93928e-09
4.66588e-09
-1.10032e-09
7.18215e-09
-6.26326e-09
9.76987e-09
-1.25995e-08
1.2411e-08
-2.01656e-08
1.5116e-08
-2.90296e-08
1.79199e-08
-3.92721e-08
2.08738e-08
-5.09836e-08
2.40328e-08
-6.4256e-08
2.74432e-08
-7.91708e-08
3.11303e-08
-9.57853e-08
3.50893e-08
-1.14119e-07
3.92814e-08
-1.34139e-07
4.36334e-08
-1.55753e-07
4.80417e-08
-1.78802e-07
5.2378e-08
-2.03056e-07
5.64967e-08
-2.28222e-07
6.02434e-08
-2.53947e-07
6.3463e-08
-2.79834e-07
6.60089e-08
-3.05459e-07
6.77512e-08
-3.30385e-07
6.85839e-08
-3.54186e-07
6.84309e-08
-3.76465e-07
6.72491e-08
-3.96864e-07
6.50293e-08
-4.15078e-07
6.17949e-08
-4.30862e-07
5.75985e-08
-4.44032e-07
5.25172e-08
-4.54465e-07
4.66474e-08
-4.62094e-07
4.00988e-08
-4.66901e-07
3.29897e-08
-4.68911e-07
2.5442e-08
-4.68185e-07
1.7578e-08
-4.64812e-07
9.51694e-09
-4.58906e-07
1.37452e-09
-4.50606e-07
-6.73098e-09
-4.40066e-07
-1.46914e-08
-4.27424e-07
-2.24223e-08
-4.12822e-07
-2.98483e-08
-3.96411e-07
-3.68945e-08
-3.78352e-07
-4.34926e-08
-3.5881e-07
-4.95822e-08
-3.37956e-07
-5.51108e-08
-3.15968e-07
-6.00339e-08
-2.93026e-07
-6.43156e-08
-2.69314e-07
-6.79281e-08
-2.45015e-07
-7.08523e-08
-2.20315e-07
-7.30775e-08
-1.95396e-07
-7.46011e-08
-1.70438e-07
-7.54285e-08
-1.45618e-07
-7.55726e-08
-1.21106e-07
-7.50536e-08
-9.70653e-08
-7.38979e-08
-7.36515e-08
-7.21381e-08
-5.10115e-08
-6.98114e-08
-2.92829e-08
-6.69597e-08
-8.59402e-09
-6.36274e-08
1.09342e-08
-5.98589e-08
2.92029e-08
-5.5714e-08
4.61259e-08
-5.12536e-08
6.16277e-08
-4.65378e-08
7.56456e-08
-4.16272e-08
8.81319e-08
-3.65838e-08
9.90535e-08
-3.14702e-08
1.08393e-07
-2.63489e-08
1.16148e-07
-2.12817e-08
1.22333e-07
-1.63287e-08
1.26978e-07
-1.15467e-08
1.30128e-07
-6.98844e-09
1.31843e-07
-2.70086e-09
1.32194e-07
1.27613e-09
1.31268e-07
4.91075e-09
1.29157e-07
8.17911e-09
1.25966e-07
1.10644e-08
1.21803e-07
1.35594e-08
1.16783e-07
1.5665e-08
1.11021e-07
1.73902e-08
1.04633e-07
1.87509e-08
9.77333e-08
1.97687e-08
9.04329e-08
2.04704e-08
8.28367e-08
2.08864e-08
7.50427e-08
2.10498e-08
6.7141e-08
2.09954e-08
5.92123e-08
2.07584e-08
5.13274e-08
2.03734e-08
4.35469e-08
1.98734e-08
3.59212e-08
1.9288e-08
2.84912e-08
1.86429e-08
2.12892e-08
1.79589e-08
1.43407e-08