/*--------------------------------*- C++ -*----------------------------------*\
  =========                 |
  \\      /  F ield         | OpenFOAM: The Open Source CFD Toolbox
   \\    /   O peration     | Website:  https://openfoam.org
    \\  /    A nd           | Version:  8
     \\/     M anipulation  |
\*---------------------------------------------------------------------------*/
FoamFile
{
    version     2.0;
    format      ascii;
    class       volVectorField;
    location    "0.38";
    object      U;
}
// * * * * * * * * * * * * * * * * * * * * * * * * * * * * * * * * * * * * * //

dimensions      [0 1 -1 0 0 0 0];

internalField   nonuniform List<vector> 
12225
(
(2.00084e-06 -5.70498e-07 0)
(5.23373e-05 -2.59718e-06 0)
(0.000124337 -2.84058e-06 0)
(0.000192585 -2.90572e-06 0)
(0.000266452 -3.52482e-06 0)
(0.00036699 -5.15779e-06 0)
(0.000520415 -8.08281e-06 0)
(0.000753545 -1.24237e-05 0)
(0.00108906 -1.80642e-05 0)
(0.00153967 -2.45531e-05 0)
(0.00210247 -3.11118e-05 0)
(0.00275603 -3.68313e-05 0)
(0.00346305 -4.11552e-05 0)
(0.0041792 -4.45446e-05 0)
(0.0048687 -4.87261e-05 0)
(0.00551973 -4.90958e-05 0)
(0.00618336 -0.000108746 0)
(0.0041579 0.00136143 0)
(1.17919e-05 -1.12872e-05 0)
(0.000160063 -2.90102e-05 0)
(0.000359724 -3.28203e-05 0)
(0.000552662 -3.47377e-05 0)
(0.000766711 -4.45558e-05 0)
(0.00106198 -6.76736e-05 0)
(0.00151207 -0.000107187 0)
(0.00219068 -0.000163958 0)
(0.00315776 -0.000235665 0)
(0.00444348 -0.000315841 0)
(0.00603315 -0.000394009 0)
(0.00785967 -0.000457651 0)
(0.0098086 -0.000495947 0)
(0.0117345 -0.00050375 0)
(0.0134819 -0.000479062 0)
(0.014845 -0.000378728 0)
(0.0155229 6.58095e-05 0)
(0.011124 0.00363318 0)
(2.53173e-05 -3.61455e-05 0)
(0.000269621 -8.25852e-05 0)
(0.000585434 -9.36604e-05 0)
(0.000894915 -0.000100989 0)
(0.00124434 -0.000131636 0)
(0.00173023 -0.000200836 0)
(0.00246903 -0.000316945 0)
(0.00357504 -0.000481509 0)
(0.00513806 -0.000686753 0)
(0.00719841 -0.00091318 0)
(0.00972438 -0.00113005 0)
(0.0126004 -0.0013003 0)
(0.0156322 -0.00138871 0)
(0.0185624 -0.0013676 0)
(0.0210811 -0.00119955 0)
(0.0227219 -0.00072547 0)
(0.0227802 0.000792274 0)
(0.0171713 0.00687258 0)
(4.02067e-05 -7.81434e-05 0)
(0.00037542 -0.000166879 0)
(0.000796098 -0.00018926 0)
(0.00121331 -0.00020675 0)
(0.00169073 -0.00027213 0)
(0.00235743 -0.000415578 0)
(0.00336672 -0.000652994 0)
(0.00486606 -0.000985989 0)
(0.00696704 -0.00139721 0)
(0.00971327 -0.00184604 0)
(0.0130522 -0.00226959 0)
(0.0168197 -0.00259138 0)
(0.0207433 -0.00273421 0)
(0.0244533 -0.00262502 0)
(0.027482 -0.00215476 0)
(0.0291441 -0.000994145 0)
(0.028519 0.0020386 0)
(0.0225345 0.0106298 0)
(5.49247e-05 -0.000138492 0)
(0.000473687 -0.000282663 0)
(0.000988822 -0.000320192 0)
(0.00150513 -0.000353315 0)
(0.00210118 -0.000468238 0)
(0.00293341 -0.000714763 0)
(0.00418473 -0.00111802 0)
(0.00602734 -0.00167837 0)
(0.00858645 -0.00236412 0)
(0.0119031 -0.00310513 0)
(0.0159024 -0.00379449 0)
(0.0203755 -0.00430109 0)
(0.0249796 -0.00448696 0)
(0.0292463 -0.00420962 0)
(0.0325781 -0.00326006 0)
(0.0341616 -0.00113264 0)
(0.033058 0.00362486 0)
(0.0272688 0.0144432 0)
(6.85701e-05 -0.000218028 0)
(0.000562849 -0.000431229 0)
(0.00116389 -0.000488069 0)
(0.00177189 -0.000542851 0)
(0.00247621 -0.000722304 0)
(0.00345405 -0.00110003 0)
(0.00490949 -0.00171146 0)
(0.0070305 -0.00255374 0)
(0.00994814 -0.00357581 0)
(0.0136967 -0.00466981 0)
(0.0181802 -0.00567357 0)
(0.0231531 -0.00638712 0)
(0.0282185 -0.0065941 0)
(0.032835 -0.00606278 0)
(0.0363234 -0.00447207 0)
(0.0378379 -0.00117489 0)
(0.0365518 0.00535563 0)
(0.0313435 0.0180655 0)
(8.06959e-05 -0.000317507 0)
(0.000643284 -0.000614366 0)
(0.00132461 -0.000695302 0)
(0.00201929 -0.000777869 0)
(0.00282175 -0.00103592 0)
(0.00392192 -0.00157047 0)
(0.00553568 -0.00242771 0)
(0.00785761 -0.00359921 0)
(0.0110177 -0.00500959 0)
(0.0150411 -0.00650595 0)
(0.0198153 -0.00786122 0)
(0.0250708 -0.00879455 0)
(0.0303787 -0.00899731 0)
(0.0351603 -0.00813644 0)
(0.0387097 -0.00578309 0)
(0.0402258 -0.00120422 0)
(0.0390514 0.00704773 0)
(0.0346809 0.021349 0)
(9.12796e-05 -0.000437787 0)
(0.000717288 -0.000834695 0)
(0.00147728 -0.000945503 0)
(0.00225725 -0.0010616 0)
(0.00314935 -0.00140997 0)
(0.00434704 -0.00212204 0)
(0.00606798 -0.00325469 0)
(0.00850435 -0.00479142 0)
(0.0117793 -0.00662822 0)
(0.0159086 -0.00856152 0)
(0.0207706 -0.0102925 0)
(0.0260881 -0.0114512 0)
(0.0314271 -0.0116286 0)
(0.0362108 -0.0103871 0)
(0.0397587 -0.00720649 0)
(0.0413643 -0.00132525 0)
(0.0405447 0.0085266 0)
(0.0371758 0.0241584 0)
(0.000100631 -0.000580166 0)
(0.000788652 -0.00109621 0)
(0.00163046 -0.00124405 0)
(0.00249886 -0.0013985 0)
(0.00347514 -0.00184499 0)
(0.00474613 -0.00274761 0)
(0.00652105 -0.0041735 0)
(0.00898121 -0.00609588 0)
(0.0122384 -0.00837914 0)
(0.0163008 -0.0107659 0)
(0.0210468 -0.0128827 0)
(0.0262104 -0.0142676 0)
(0.0313805 -0.0144093 0)
(0.03602 -0.012771 0)
(0.0395163 -0.00876313 0)
(0.0412829 -0.00164329 0)
(0.0409865 0.00963336 0)
(0.0387086 0.0263615 0)
(0.000109205 -0.000746636 0)
(0.000861742 -0.00140474 0)
(0.00179323 -0.0015986 0)
(0.00275786 -0.00179481 0)
(0.00381677 -0.00234163 0)
(0.00513955 -0.00343739 0)
(0.00691691 -0.00515891 0)
(0.00931163 -0.00746757 0)
(0.012421 -0.0101951 0)
(0.0162484 -0.0130309 0)
(0.0206832 -0.0155282 0)
(0.0254887 -0.0171364 0)
(0.0303037 -0.0172473 0)
(0.034663 -0.0152363 0)
(0.0380517 -0.0104666 0)
(0.0400107 -0.00224626 0)
(0.0403231 0.0102362 0)
(0.0391608 0.0278372 0)
(0.000117489 -0.000941041 0)
(0.000940028 -0.00176905 0)
(0.00197227 -0.00202041 0)
(0.00304444 -0.00226017 0)
(0.00418817 -0.0029026 0)
(0.00554539 -0.00418125 0)
(0.00727884 -0.00618205 0)
(0.00952616 -0.00885416 0)
(0.0123679 -0.0119982 0)
(0.0158065 -0.0152543 0)
(0.019752 -0.0181102 0)
(0.0240139 -0.0199356 0)
(0.028303 -0.0200375 0)
(0.0322501 -0.0177182 0)
(0.0354565 -0.0123124 0)
(0.0375874 -0.00319321 0)
(0.0385127 0.010237 0)
(0.038428 0.0284804 0)
(0.000125045 -0.00114922 0)
(0.00101658 -0.0021635 0)
(0.00215076 -0.0024811 0)
(0.00333204 -0.0027609 0)
(0.00455703 -0.00347938 0)
(0.00593351 -0.0049029 0)
(0.007591 -0.0071256 0)
(0.00963905 -0.0100865 0)
(0.0121416 -0.0135617 0)
(0.015103 -0.0171542 0)
(0.0184596 -0.0203024 0)
(0.0220749 -0.0223169 0)
(0.0257402 -0.0224419 0)
(0.0291887 -0.0199281 0)
(0.0321358 -0.0140971 0)
(0.0343534 -0.00438221 0)
(0.0357739 0.00965013 0)
(0.0365877 0.0282531 0)
(0.000132933 -0.00138445 0)
(0.00109399 -0.00261377 0)
(0.00233302 -0.00301047 0)
(0.00362815 -0.00332901 0)
(0.00493551 -0.00410765 0)
(0.00632282 -0.00564505 0)
(0.00788147 -0.0080436 0)
(0.00968975 -0.0112343 0)
(0.0117941 -0.0149742 0)
(0.014202 -0.0188386 0)
(0.0168797 -0.0222308 0)
(0.0197499 -0.0244184 0)
(0.0226912 -0.0245996 0)
(0.0255453 -0.0219879 0)
(0.0281427 -0.0158983 0)
(0.030355 -0.00581623 0)
(0.0321625 0.00856064 0)
(0.0337422 0.0272947 0)
(0.000141548 -0.00169025 0)
(0.00117539 -0.00321172 0)
(0.00252863 -0.00371846 0)
(0.00395128 -0.00407846 0)
(0.0053489 -0.00489905 0)
(0.00673772 -0.00651424 0)
(0.00816091 -0.00903651 0)
(0.0096581 -0.0123917 0)
(0.0112546 -0.0163243 0)
(0.0129619 -0.0203935 0)
(0.0147813 -0.0239831 0)
(0.0167048 -0.0263365 0)
(0.0187119 -0.0266236 0)
(0.0207681 -0.0240343 0)
(0.0228328 -0.0178821 0)
(0.0248844 -0.00769513 0)
(0.0269547 0.00672644 0)
(0.0292023 0.0252973 0)
(0.000148185 -0.00208513 0)
(0.00123895 -0.00400207 0)
(0.00269171 -0.00466311 0)
(0.00423251 -0.00506637 0)
(0.00571114 -0.00589288 0)
(0.00708285 -0.00751326 0)
(0.00833393 -0.0100525 0)
(0.00945892 -0.0134377 0)
(0.0104582 -0.0174133 0)
(0.0113458 -0.0215432 0)
(0.0121581 -0.0252196 0)
(0.0129576 -0.0276935 0)
(0.0138278 -0.0281378 0)
(0.0148626 -0.0257417 0)
(0.0161555 -0.019823 0)
(0.0177973 -0.00993495 0)
(0.0198824 0.00406382 0)
(0.0225573 0.0219969 0)
(0.000146908 -0.00257837 0)
(0.00123716 -0.00501466 0)
(0.00272128 -0.00589015 0)
(0.0043171 -0.00634034 0)
(0.00582492 -0.00711814 0)
(0.0071369 -0.00862846 0)
(0.0081791 -0.0110116 0)
(0.00889773 -0.0142058 0)
(0.0092647 -0.017975 0)
(0.00929052 -0.0219177 0)
(0.00903727 -0.0254741 0)
(0.00862465 -0.0279497 0)
(0.00822472 -0.0285668 0)
(0.0080451 -0.0265497 0)
(0.00830442 -0.0212351 0)
(0.00920623 -0.0121827 0)
(0.0109213 0.00074359 0)
(0.0136056 0.0173552 0)
(0.000128264 -0.00314647 0)
(0.00109746 -0.00621708 0)
(0.00246047 -0.00737803 0)
(0.00395922 -0.00788759 0)
(0.0053696 -0.00855524 0)
(0.00653346 -0.00981094 0)
(0.0073242 -0.0118113 0)
(0.00764366 -0.0145176 0)
(0.00743337 -0.0177362 0)
(0.00669019 -0.0211341 0)
(0.00548095 -0.0242459 0)
(0.00395097 -0.0264874 0)
(0.00232103 -0.0271898 0)
(0.000870916 -0.0256663 0)
(-9.13586e-05 -0.0213031 0)
(-0.00026528 -0.0136634 0)
(0.000612553 -0.00257169 0)
(0.00273745 0.0118509 0)
(8.27445e-05 -0.00369603 0)
(0.000753906 -0.00743448 0)
(0.00176009 -0.00893836 0)
(0.00291299 -0.00953549 0)
(0.00400901 -0.0100542 0)
(0.0048722 -0.0109286 0)
(0.0053477 -0.0123266 0)
(0.00530942 -0.0142402 0)
(0.00467408 -0.0165356 0)
(0.00341628 -0.0189755 0)
(0.00158216 -0.0212265 0)
(-0.00070008 -0.022865 0)
(-0.00322047 -0.0233913 0)
(-0.00569386 -0.0222754 0)
(-0.00778636 -0.0190148 0)
(-0.00915239 -0.0132092 0)
(-0.00946918 -0.00463504 0)
(-0.00847866 0.00670614 0)
(7.02261e-06 -0.00404112 0)
(0.000195775 -0.00828898 0)
(0.000577382 -0.0101235 0)
(0.00107977 -0.0108416 0)
(0.00157349 -0.0112267 0)
(0.00191178 -0.0116836 0)
(0.00195256 -0.0123772 0)
(0.00157478 -0.0133259 0)
(0.00069158 -0.0144563 0)
(-0.000738531 -0.0156292 0)
(-0.0027016 -0.0166482 0)
(-0.00511944 -0.017264 0)
(-0.00784418 -0.017183 0)
(-0.0106601 -0.0160825 0)
(-0.0132963 -0.0136392 0)
(-0.01545 -0.00956847 0)
(-0.0168096 -0.00366729 0)
(-0.0170963 0.00414743 0)
(-6.98643e-05 -0.00395959 0)
(-0.000409303 -0.00825042 0)
(-0.000753317 -0.0102115 0)
(-0.00104655 -0.0110093 0)
(-0.00131767 -0.0113347 0)
(-0.00165177 -0.0115445 0)
(-0.00214386 -0.01179 0)
(-0.0028775 -0.0121021 0)
(-0.00391406 -0.0124411 0)
(-0.00528595 -0.0127223 0)
(-0.00699146 -0.0128287 0)
(-0.00898956 -0.0126166 0)
(-0.0111959 -0.0119215 0)
(-0.0134817 -0.0105668 0)
(-0.0156773 -0.00837638 0)
(-0.0175824 -0.00519322 0)
(-0.0189758 -0.000899037 0)
(-0.0196456 0.00456433 0)
(-0.000133074 -0.00359097 0)
(-0.000947706 -0.0075842 0)
(-0.00195822 -0.00948083 0)
(-0.00299648 -0.0102813 0)
(-0.00400127 -0.0105783 0)
(-0.00499982 -0.0106826 0)
(-0.0060413 -0.0107305 0)
(-0.0071723 -0.0107576 0)
(-0.00842661 -0.0107411 0)
(-0.00982006 -0.010624 0)
(-0.0113472 -0.0103273 0)
(-0.0129787 -0.00975709 0)
(-0.0146592 -0.00881002 0)
(-0.0163065 -0.00737957 0)
(-0.0178134 -0.00536396 0)
(-0.0190526 -0.00267606 0)
(-0.0198806 0.000746339 0)
(-0.0201577 0.00493085 0)
(-0.000187673 -0.00302367 0)
(-0.00142693 -0.00648444 0)
(-0.00303926 -0.00818499 0)
(-0.00475653 -0.00892839 0)
(-0.00644155 -0.00920346 0)
(-0.00807229 -0.00927306 0)
(-0.00965925 -0.00925594 0)
(-0.0112187 -0.00918668 0)
(-0.0127618 -0.00905188 0)
(-0.0142888 -0.00881062 0)
(-0.0157866 -0.00840583 0)
(-0.0172274 -0.00777131 0)
(-0.0185676 -0.00683694 0)
(-0.0197486 -0.00553384 0)
(-0.0206979 -0.00379983 0)
(-0.0213333 -0.00158559 0)
(-0.021563 0.0011398 0)
(-0.0212989 0.00438406 0)
(-0.000221053 -0.00235627 0)
(-0.00175916 -0.00515809 0)
(-0.00381031 -0.00658262 0)
(-0.00603205 -0.00722453 0)
(-0.00823394 -0.00747102 0)
(-0.0103584 -0.00753687 0)
(-0.0123888 -0.00752075 0)
(-0.0143213 -0.00745303 0)
(-0.0161521 -0.00732537 0)
(-0.017871 -0.00710753 0)
(-0.0194582 -0.00675694 0)
(-0.0208837 -0.00622482 0)
(-0.0221073 -0.00546071 0)
(-0.02308 -0.00441656 0)
(-0.0237457 -0.00305085 0)
(-0.0240448 -0.00133266 0)
(-0.023914 0.000754748 0)
(-0.0232934 0.00321081 0)
(-0.000225368 -0.00168996 0)
(-0.00188555 -0.00381116 0)
(-0.00415024 -0.00492873 0)
(-0.00663386 -0.00544343 0)
(-0.00911749 -0.0056502 0)
(-0.0115226 -0.0057172 0)
(-0.0138171 -0.00572193 0)
(-0.0159871 -0.00568876 0)
(-0.0180214 -0.00561223 0)
(-0.0199047 -0.00547012 0)
(-0.0216135 -0.00523101 0)
(-0.0231162 -0.00485892 0)
(-0.0243729 -0.00431693 0)
(-0.0253378 -0.00357027 0)
(-0.0259614 -0.0025894 0)
(-0.0261938 -0.00135279 0)
(-0.025985 0.000150475 0)
(-0.025288 0.00191808 0)
(-0.000200979 -0.00110468 0)
(-0.00180281 -0.00260206 0)
(-0.00405063 -0.00341932 0)
(-0.00654452 -0.00379941 0)
(-0.00905911 -0.00395803 0)
(-0.0115078 -0.00401971 0)
(-0.0138537 -0.00404119 0)
(-0.01608 -0.00404032 0)
(-0.0181747 -0.00401339 0)
(-0.0201215 -0.0039448 0)
(-0.021897 -0.00381236 0)
(-0.0234697 -0.0035906 0)
(-0.0248011 -0.00325324 0)
(-0.025847 -0.00277544 0)
(-0.026561 -0.00213593 0)
(-0.0268971 -0.00131896 0)
(-0.0268109 -0.000316165 0)
(-0.0262609 0.000870986 0)
(-0.000154873 -0.000645504 0)
(-0.0015525 -0.00162027 0)
(-0.00359004 -0.00216899 0)
(-0.00587687 -0.002423 0)
(-0.00819912 -0.00253185 0)
(-0.0104733 -0.00258078 0)
(-0.0126649 -0.00260769 0)
(-0.01476 -0.0026243 0)
(-0.0167488 -0.00262816 0)
(-0.0186176 -0.00260909 0)
(-0.0203458 -0.00255263 0)
(-0.0219048 -0.00244203 0)
(-0.0232595 -0.00225986 0)
(-0.0243692 -0.0019894 0)
(-0.0251906 -0.00161602 0)
(-0.0256808 -0.00112847 0)
(-0.0257986 -0.000520057 0)
(-0.025506 0.000208904 0)
(-9.78425e-05 -0.000323996 0)
(-0.00119806 -0.000893375 0)
(-0.00288617 -0.00122056 0)
(-0.00480173 -0.00136898 0)
(-0.00675743 -0.0014336 0)
(-0.00868171 -0.00146619 0)
(-0.0105476 -0.00148903 0)
(-0.012346 -0.00150878 0)
(-0.0140711 -0.00152393 0)
(-0.0157133 -0.00152859 0)
(-0.0172565 -0.00151436 0)
(-0.0186777 -0.0014715 0)
(-0.0199473 -0.00138969 0)
(-0.0210306 -0.00125884 0)
(-0.0218899 -0.00106991 0)
(-0.022487 -0.000815619 0)
(-0.0227849 -0.000491043 0)
(-0.02275 -9.55398e-05 0)
(-4.22783e-05 -0.000127743 0)
(-0.000805411 -0.000408202 0)
(-0.00205727 -0.000569717 0)
(-0.00349113 -0.000640293 0)
(-0.00495963 -0.000671228 0)
(-0.00640961 -0.000688448 0)
(-0.00782351 -0.000702634 0)
(-0.00919739 -0.000716845 0)
(-0.0105291 -0.000730289 0)
(-0.0118134 -0.000740137 0)
(-0.0130394 -0.000742381 0)
(-0.0141907 -0.000732321 0)
(-0.0152455 -0.000704919 0)
(-0.0161773 -0.000655143 0)
(-0.0169569 -0.000578355 0)
(-0.0175536 -0.000470645 0)
(-0.0179373 -0.000329021 0)
(-0.0180803 -0.00015245 0)
(-1.15593e-06 -3.03875e-05 0)
(-0.000431873 -0.000130953 0)
(-0.00120146 -0.000187038 0)
(-0.00208862 -0.00021007 0)
(-0.0029978 -0.000220201 0)
(-0.00389755 -0.000226476 0)
(-0.00477929 -0.000232436 0)
(-0.00564268 -0.000239023 0)
(-0.00648802 -0.000245931 0)
(-0.00731329 -0.000252203 0)
(-0.00811286 -0.000256498 0)
(-0.00887725 -0.000257229 0)
(-0.00959324 -0.000252665 0)
(-0.0102444 -0.000241041 0)
(-0.0108121 -0.000220681 0)
(-0.0112763 -0.000190109 0)
(-0.0116163 -0.000148009 0)
(-0.0118135 -9.3377e-05 0)
(1.2337e-05 1.50791e-06 0)
(-0.000121007 -1.05631e-05 0)
(-0.000389537 -1.51855e-05 0)
(-0.000699961 -1.68779e-05 0)
(-0.00101752 -1.77011e-05 0)
(-0.00133227 -1.83707e-05 0)
(-0.00164233 -1.91799e-05 0)
(-0.00194848 -2.01873e-05 0)
(-0.00225152 -2.13633e-05 0)
(-0.00255132 -2.26302e-05 0)
(-0.00284634 -2.38776e-05 0)
(-0.00313362 -2.49718e-05 0)
(-0.00340873 -2.5757e-05 0)
(-0.00366596 -2.60647e-05 0)
(-0.00389859 -2.57224e-05 0)
(-0.00409925 -2.45816e-05 0)
(-0.00425998 -2.24241e-05 0)
(-0.0043731 -1.87868e-05 0)
(-1.22367e-05 3.65891e-05 -3.67931e-22)
(7.63795e-05 -3.26786e-06 4.68366e-22)
(0.000324089 -7.892e-05 0)
(0.000731191 -0.000150778 0)
(0.00126355 -0.000203866 0)
(0.00187189 -0.000233505 -4.66634e-22)
(0.00250259 -0.000239837 0)
(0.00310334 -0.000225951 0)
(0.00362763 -0.000196802 0)
(0.00403815 -0.000158307 0)
(0.00430888 -0.000116533 4.73039e-22)
(0.00442563 -7.69787e-05 0)
(0.00438493 -4.39815e-05 0)
(0.0041921 -2.01833e-05 0)
(0.00385792 -6.49493e-06 0)
(0.00339467 -2.03869e-06 4.8788e-22)
(0.00281238 -4.3624e-06 0)
(0.00211542 -9.88418e-06 0)
(0.00130001 -1.44324e-05 0)
(0.000353034 -1.38034e-05 0)
(-0.000748008 -4.27613e-06 0)
(-0.00203358 1.70592e-05 0)
(-0.00353995 5.22078e-05 0)
(-0.00530651 0.000102322 5.32859e-22)
(-0.0073732 0.000167881 -5.40739e-22)
(-0.00977812 0.000248941 5.49186e-22)
(-0.0125556 0.000345338 5.58068e-22)
(-0.0157345 0.000456781 0)
(-0.0193368 0.000582821 0)
(-0.0233761 0.000722712 -5.85288e-22)
(-0.027856 0.000875228 -5.93621e-22)
(-0.0327687 0.00103847 0)
(-0.0380932 0.0012097 0)
(-0.0437943 0.00138525 -6.11007e-22)
(-0.0498216 0.00156041 0)
(-0.0561096 0.00172957 0)
(-0.0625778 0.00188623 6.06679e-22)
(-0.0691321 0.00202333 0)
(-0.0756668 0.00213356 5.84826e-22)
(-0.0820676 0.00220979 1.13364e-21)
(-0.088214 0.00224559 0)
(-0.093984 0.00223574 0)
(-0.0992572 0.00217665 0)
(-0.103919 0.00206677 0)
(-0.107863 0.00190683 0)
(-0.110998 0.00169973 6.9165e-22)
(-0.113243 0.00144946 5.81588e-22)
(-0.11454 0.00115952 4.62966e-22)
(-0.114851 0.000837372 0)
(-0.114146 0.000501347 -2.04742e-22)
(-0.112421 0.000152416 0)
(-0.109706 -0.000198477 -6.9522e-23)
(-0.106044 -0.000540021 -2.07739e-22)
(-0.101491 -0.000862792 0)
(-0.0961216 -0.00115887 0)
(-0.0900226 -0.00142173 0)
(-0.0832911 -0.00164627 -7.19627e-22)
(-0.0760321 -0.00182887 0)
(-0.0683562 -0.00196737 0)
(-0.060377 -0.00206099 0)
(-0.0522088 -0.00211022 0)
(-0.0439644 -0.00211669 0)
(-0.0357533 -0.00208304 0)
(-0.0276794 -0.0020127 0)
(-0.01984 -0.00190978 0)
(-0.0123238 -0.00177884 1.15463e-21)
(-0.00521032 -0.0016247 0)
(0.00143116 -0.00145214 0)
(0.00754365 -0.00126598 -9.99846e-22)
(0.0130814 -0.00107136 -9.12774e-22)
(0.0180088 -0.000872533 0)
(0.0223033 -0.000675634 7.22559e-22)
(0.0259528 -0.000486061 -6.23137e-22)
(0.0289579 -0.000307694 0)
(0.0313312 -0.000143544 4.23915e-22)
(0.0330952 4.06814e-06 0)
(0.0342814 0.00013353 0)
(0.0349292 0.000243935 -1.43943e-22)
(0.0350841 0.000335038 0)
(0.0347963 0.000407265 -1.887e-23)
(0.0341195 0.000461311 0)
(0.0331086 0.000498479 1.57237e-22)
(0.0318183 0.000520351 2.16721e-22)
(0.0303022 0.000528716 2.6976e-22)
(0.0286114 0.000525541 6.33051e-22)
(0.0267936 0.000512854 -7.14584e-22)
(0.0248923 0.00049265 0)
(0.022946 0.00046682 0)
(0.0209881 0.000437105 0)
(0.0190466 0.00040506 -9.36733e-22)
(0.0171441 0.000372042 -9.70988e-22)
(0.0152983 0.0003392 9.98709e-22)
(0.0135219 0.000307483 0)
(0.0118232 0.000277641 -1.03831e-21)
(0.0102065 0.000250242 -1.0519e-21)
(0.00867298 0.00022567 -1.06236e-21)
(0.0072207 0.000204143 0)
(0.00584582 0.000185714 0)
(0.00454303 0.000170291 0)
(0.00330636 0.000157649 -1.08385e-21)
(0.00212975 0.00014746 0)
(0.00100762 0.000139304 0)
(-6.46986e-05 0.000132664 1.087e-21)
(-0.00109089 0.000127053 0)
(-0.00207311 0.000122096 0)
(-0.00301208 0.000117447 1.07681e-21)
(-0.00390749 0.000112803 0)
(-0.00475816 0.000107933 0)
(-0.00556237 0.000102681 -1.05863e-21)
(-0.00631808 9.69671e-05 -1.05063e-21)
(-0.00702329 9.07746e-05 0)
(-0.0076762 8.41407e-05 1.03155e-21)
(-0.00827543 7.71437e-05 0)
(-0.00882017 6.98899e-05 -1.00847e-21)
(-0.00931023 6.25015e-05 0)
(-0.00974608 5.51065e-05 -9.81794e-22)
(-0.0101289 4.78293e-05 -9.67313e-22)
(-0.0104604 4.0784e-05 0)
(-0.0107428 3.40696e-05 0)
(-0.0109791 2.77669e-05 0)
(-0.0111721 2.19367e-05 0)
(-0.0113254 1.66199e-05 0)
(-0.0114424 1.18379e-05 0)
(-0.0115267 7.59101e-06 0)
(-0.0115818 3.84634e-06 -8.37622e-22)
(-0.0116114 5.80416e-07 8.21134e-22)
(-0.0116187 -1.89527e-06 0)
(-0.0116067 -3.96845e-06 0)
(-0.0115785 -5.74303e-06 0)
(-0.011537 -7.17777e-06 0)
(-0.0114844 -8.27043e-06 1.4849e-21)
(-0.0114232 -9.06059e-06 0)
(-0.0113551 -9.59078e-06 -1.4267e-21)
(-0.0112821 -9.89947e-06 1.39873e-21)
(-0.0112056 -1.00215e-05 0)
(-0.011127 -9.98856e-06 0)
(-0.0110474 -9.82899e-06 0)
(-0.0109677 -9.56798e-06 -1.29427e-21)
(-0.0108889 -9.22778e-06 -1.26992e-21)
(-0.0108114 -8.82769e-06 0)
(-0.0107359 -8.3843e-06 -1.22314e-21)
(-0.0106628 -7.91167e-06 -1.20066e-21)
(-0.0105923 -7.4216e-06 1.17872e-21)
(-0.0105248 -6.92391e-06 0)
(-0.0104603 -6.42671e-06 0)
(-0.0103989 -5.93666e-06 1.11592e-21)
(-0.0103407 -5.45913e-06 0)
(-0.0102857 -4.99839e-06 0)
(-0.0102338 -4.5577e-06 0)
(-0.0101849 -4.13944e-06 0)
(-0.0101389 -3.74522e-06 -1.01932e-21)
(-0.0100957 -3.37594e-06 -1.00095e-21)
(-0.0100552 -3.03195e-06 0)
(-0.0100171 -2.7131e-06 -9.64947e-22)
(-0.00998137 -2.41883e-06 0)
(-0.0099478 -2.14823e-06 0)
(-0.00991625 -1.90008e-06 -9.12505e-22)
(-0.00988655 -1.67293e-06 0)
(-0.00985857 -1.46509e-06 -8.78373e-22)
(-0.00983215 -1.27471e-06 0)
(-0.00980717 -1.09969e-06 0)
(-0.00978351 -9.378e-07 -8.28129e-22)
(-0.00976107 -7.86441e-07 0)
(-0.00973976 -6.42451e-07 -7.95123e-22)
(-0.00971954 -5.01232e-07 0)
(-0.00970038 -3.55004e-07 0)
(-0.00968237 -1.89167e-07 0)
(-0.00966578 2.38718e-08 7.29846e-22)
(-0.00965118 3.3219e-07 0)
(-0.0096397 8.07778e-07 -6.97293e-22)
(-0.00963318 1.53571e-06 0)
(-0.00963407 2.54494e-06 0)
(-0.00964495 3.67474e-06 0)
(-0.00966642 5.03634e-06 0)
(-0.00969414 6.01184e-06 0)
(-0.0097129 5.60118e-06 0)
(-0.00969017 5.69786e-07 0)
(-0.00959293 -9.64957e-06 1.10088e-21)
(-0.00935647 -1.68673e-05 0)
(-0.00833967 -0.000170837 0)
(3.40881e-05 -0.000201986 1.16133e-21)
(0.000417786 -0.000785389 -1.49744e-21)
(0.00113744 -0.00139324 0)
(0.00215036 -0.00190476 9.94624e-22)
(0.00336283 -0.00225188 0)
(0.00467066 -0.00240354 4.9488e-22)
(0.00596587 -0.0023552 -9.92409e-22)
(0.00714194 -0.00212245 -9.93587e-22)
(0.0081012 -0.00173567 0)
(0.00876107 -0.00123453 -9.9912e-22)
(0.00905807 -0.000662514 -5.02042e-22)
(0.0089491 -6.14538e-05 0)
(0.00841033 0.000533338 0)
(0.00743367 0.00109708 0)
(0.00602064 0.00161783 0)
(0.00417587 0.00209725 -5.21593e-22)
(0.00189983 0.00254955 0)
(-0.000817506 0.00299867 1.05088e-21)
(-0.00400109 0.00347431 0)
(-0.00769261 0.00400736 0)
(-0.0119499 0.00462539 -1.06142e-21)
(-0.0168436 0.00534935 0)
(-0.0224515 0.00619144 1.06967e-21)
(-0.0288525 0.00715457 -5.51472e-22)
(-0.0361201 0.00823299 5.55157e-22)
(-0.0443156 0.00941356 -5.58879e-22)
(-0.0534827 0.010677 -5.62509e-22)
(-0.0636421 0.0119987 0)
(-0.0747876 0.0133494 0)
(-0.0868817 0.0146952 5.71235e-22)
(-0.0998533 0.0159975 -5.42352e-22)
(-0.113595 0.0172139 0)
(-0.127966 0.0182992 0)
(-0.142788 0.0192071 5.70034e-22)
(-0.157857 0.019892 0)
(-0.172941 0.0203121 0)
(-0.187794 0.0204317 -5.50139e-22)
(-0.202159 0.0202233 0)
(-0.21578 0.0196696 5.28712e-22)
(-0.22841 0.0187649 -1.00897e-21)
(-0.239818 0.0175149 0)
(-0.249796 0.0159371 0)
(-0.258164 0.0140594 -1.75073e-21)
(-0.264774 0.0119188 -1.61832e-21)
(-0.269513 0.00955924 -1.46726e-21)
(-0.272304 0.00702751 6.83439e-22)
(-0.273105 0.00437244 -5.18546e-22)
(-0.271902 0.00164735 -1.31883e-21)
(-0.268714 -0.00108546 6.81503e-22)
(-0.263627 -0.00376119 1.84473e-22)
(-0.256727 -0.0063338 0)
(-0.248119 -0.00875923 6.32637e-23)
(-0.237929 -0.0109996 -1.15242e-22)
(-0.226301 -0.0130238 0)
(-0.213389 -0.014807 0)
(-0.199358 -0.0163309 0)
(-0.18438 -0.017583 6.79776e-22)
(-0.16863 -0.0185568 0)
(-0.152289 -0.0192509 -1.71005e-21)
(-0.135535 -0.0196693 0)
(-0.118545 -0.0198203 -2.043e-21)
(-0.101494 -0.0197161 0)
(-0.0845494 -0.0193726 2.26466e-21)
(-0.0678724 -0.0188085 0)
(-0.0516155 -0.018045 -2.35735e-21)
(-0.0359212 -0.017105 1.14455e-21)
(-0.0209204 -0.016013 0)
(-0.00673152 -0.0147941 2.23977e-21)
(0.00653678 -0.0134734 1.09007e-21)
(0.018791 -0.0120774 9.97837e-22)
(0.0299612 -0.0106327 0)
(0.0399865 -0.00916674 7.2679e-22)
(0.0488244 -0.007705 6.67883e-22)
(0.0564495 -0.00627144 0)
(0.0628543 -0.00488782 -4.50504e-22)
(0.068048 -0.00357356 6.55137e-22)
(0.0720567 -0.00234532 0)
(0.0749221 -0.00121676 1.51984e-22)
(0.0767004 -0.000198395 0)
(0.0774609 0.000702389 8.16595e-23)
(0.0772835 0.00148234 0)
(0.0762571 0.00214122 -5.11515e-22)
(0.0744768 0.00268125 -2.28658e-22)
(0.0720414 0.00310736 2.91864e-22)
(0.069051 0.00342681 6.7726e-22)
(0.0656041 0.0036487 -7.59407e-22)
(0.061796 0.00378343 0)
(0.0577164 0.0038422 0)
(0.0534479 0.0038366 0)
(0.0490647 0.00377815 3.00519e-21)
(0.0446322 0.00367801 1.04802e-21)
(0.0402059 0.00354668 -1.08238e-21)
(0.0358318 0.00339382 0)
(0.031546 0.00322804 -1.11147e-21)
(0.027376 0.00305679 1.15447e-21)
(0.0233405 0.00288622 1.17078e-21)
(0.0194512 0.00272113 0)
(0.0157136 0.00256489 0)
(0.0121286 0.0024195 0)
(0.00869397 0.00228569 1.21325e-21)
(0.0054055 0.00216308 0)
(0.00225858 0.0020504 -2.43098e-21)
(-0.000750896 0.00194572 -3.66064e-21)
(-0.0036264 0.00184679 2.42627e-21)
(-0.00636905 0.00175144 0)
(-0.00897824 0.00165771 1.19391e-21)
(-0.0114519 0.00156405 0)
(-0.0137871 0.00146938 2.37469e-21)
(-0.01598 0.00137313 -1.17286e-21)
(-0.0180273 0.0012752 -1.16398e-21)
(-0.0199258 0.00117587 0)
(-0.0216733 0.00107577 -3.44713e-21)
(-0.0232688 0.000975744 2.27035e-21)
(-0.0247129 0.000876789 1.12529e-21)
(-0.0260075 0.000779936 0)
(-0.027156 0.000686196 1.09518e-21)
(-0.0281634 0.000596497 3.23255e-21)
(-0.0290357 0.000511638 0)
(-0.0297803 0.000432265 2.08684e-21)
(-0.0304053 0.000358855 2.05216e-21)
(-0.0309193 0.000291716 2.01688e-21)
(-0.0313315 0.000230993 0)
(-0.0316512 0.000176681 0)
(-0.0318878 0.000128646 0)
(-0.0320503 8.66328e-05 -9.36353e-22)
(-0.0321475 5.03316e-05 -9.19427e-22)
(-0.032188 1.96588e-05 0)
(-0.0321797 -6.04217e-06 -1.76835e-21)
(-0.0321297 -2.73766e-05 -1.73431e-21)
(-0.032045 -4.46965e-05 0)
(-0.0319316 -5.83985e-05 -1.66826e-21)
(-0.031795 -6.89021e-05 -3.2731e-21)
(-0.0316404 -7.66138e-05 1.60528e-21)
(-0.0314719 -8.19142e-05 1.57564e-21)
(-0.0312935 -8.51551e-05 0)
(-0.0311085 -8.66576e-05 0)
(-0.0309198 -8.67117e-05 0)
(-0.0307298 -8.55772e-05 1.462e-21)
(-0.0305406 -8.34847e-05 -1.43642e-21)
(-0.0303539 -8.06365e-05 -2.82068e-21)
(-0.0301711 -7.72092e-05 1.38493e-21)
(-0.0299933 -7.3355e-05 -1.36127e-21)
(-0.0298213 -6.92044e-05 -1.33672e-21)
(-0.0296558 -6.48681e-05 0)
(-0.0294972 -6.04396e-05 0)
(-0.0293459 -5.59967e-05 1.26902e-21)
(-0.0292019 -5.16037e-05 0)
(-0.0290654 -4.73126e-05 0)
(-0.0289361 -4.31646e-05 -2.40867e-21)
(-0.028814 -3.91914e-05 0)
(-0.0286988 -3.54161e-05 -1.16337e-21)
(-0.0285903 -3.18547e-05 1.14286e-21)
(-0.0284881 -2.85167e-05 0)
(-0.0283919 -2.54063e-05 -1.10365e-21)
(-0.0283013 -2.25231e-05 0)
(-0.0282159 -1.98629e-05 0)
(-0.0281354 -1.74183e-05 1.04565e-21)
(-0.0280594 -1.51794e-05 -2.05367e-21)
(-0.0279876 -1.31339e-05 1.00797e-21)
(-0.0279195 -1.12679e-05 0)
(-0.0278549 -9.56546e-06 0)
(-0.0277934 -8.00916e-06 -9.52442e-22)
(-0.0277347 -6.57848e-06 0)
(-0.0276787 -5.24704e-06 -9.15746e-22)
(-0.0276251 -3.97495e-06 0)
(-0.0275738 -2.69272e-06 0)
(-0.027525 -1.27064e-06 0)
(-0.0274791 5.28924e-07 -8.42848e-22)
(-0.0274374 3.10426e-06 0)
(-0.0274021 7.02448e-06 8.06382e-22)
(-0.0273768 1.28946e-05 0)
(-0.0273663 2.09e-05 0)
(-0.0273739 2.99437e-05 -1.50047e-21)
(-0.0273976 3.70692e-05 1.46106e-21)
(-0.0274225 3.53546e-05 0)
(-0.0274075 1.33514e-05 0)
(-0.027276 -4.52403e-05 0)
(-0.0269425 -0.000159261 -3.84702e-21)
(-0.02622 -0.000379217 0)
(-0.0243267 -0.000882054 2.34865e-21)
(5.76609e-05 -0.00079048 3.5856e-25)
(0.000642038 -0.00233443 1.99565e-21)
(0.00165475 -0.00369095 0)
(0.00300269 -0.00472214 -1.98195e-21)
(0.00453382 -0.00533846 0)
(0.00609903 -0.00549726 0)
(0.00755349 -0.00519766 -6.31085e-26)
(0.00875801 -0.00447458 9.89117e-22)
(0.00958527 -0.00339112 9.91827e-22)
(0.00992598 -0.00202894 9.96437e-22)
(0.00969245 -0.0004776 0)
(0.00881903 0.00117628 0)
(0.00726125 0.00285942 -1.00829e-21)
(0.0049896 0.00451999 -2.02651e-21)
(0.00198369 0.00613323 2.03881e-21)
(-0.00177611 0.00770283 0)
(-0.00631569 0.00925895 2.04077e-21)
(-0.0116737 0.0108517 -1.02971e-21)
(-0.017905 0.0125416 0)
(-0.0250809 0.0143897 2.00768e-21)
(-0.0332848 0.016447 1.0185e-21)
(-0.0426058 0.0187465 -1.98733e-21)
(-0.053129 0.0212984 -1.01074e-21)
(-0.0649262 0.0240887 0)
(-0.0780451 0.0270802 1.96644e-21)
(-0.0925003 0.0302154 1.96325e-21)
(-0.108266 0.0334197 0)
(-0.125269 0.0366045 1.96399e-21)
(-0.143386 0.03967 0)
(-0.162443 0.0425085 1.97437e-21)
(-0.182216 0.0450084 9.85327e-22)
(-0.202438 0.0470596 0)
(-0.222806 0.0485584 0)
(-0.242994 0.0494143 0)
(-0.262665 0.0495552 0)
(-0.281483 0.0489317 0)
(-0.299125 0.0475198 0)
(-0.315297 0.0453222 1.98913e-21)
(-0.329734 0.0423674 -2.87902e-21)
(-0.342216 0.0387073 0)
(-0.352564 0.0344137 0)
(-0.360646 0.0295745 0)
(-0.366373 0.0242889 -1.54048e-22)
(-0.369699 0.0186624 1.44454e-21)
(-0.370619 0.0128021 2.79105e-21)
(-0.369161 0.00681506 -2.49959e-21)
(-0.365379 0.000811814 -1.15739e-21)
(-0.359376 -0.00509175 8.22168e-22)
(-0.351292 -0.0107931 1.38283e-22)
(-0.341236 -0.0162187 5.38958e-22)
(-0.329352 -0.0212999 0)
(-0.315784 -0.0259801 7.16771e-23)
(-0.300691 -0.0302128 1.11412e-22)
(-0.284238 -0.0339607 0)
(-0.266596 -0.0371963 0)
(-0.247941 -0.039901 8.87948e-22)
(-0.22845 -0.0420649 0)
(-0.208304 -0.0436864 0)
(-0.187683 -0.0447715 -1.44085e-21)
(-0.166763 -0.0453333 -3.39735e-21)
(-0.14572 -0.045391 1.92862e-21)
(-0.124725 -0.0449695 0)
(-0.103943 -0.0440989 -2.15398e-21)
(-0.0835323 -0.042813 0)
(-0.0636436 -0.0411494 -2.11531e-21)
(-0.0444189 -0.0391483 -2.26678e-21)
(-0.0259902 -0.0368518 4.33221e-21)
(-0.00847961 -0.034303 2.03185e-21)
(0.00799634 -0.031547 0)
(0.0233382 -0.0286315 -3.64566e-21)
(0.03747 -0.0256045 0)
(0.0503189 -0.0225121 -4.26816e-21)
(0.061829 -0.019399 -2.37688e-21)
(0.0719592 -0.0163087 -1.95909e-21)
(0.080685 -0.0132828 1.55231e-21)
(0.0879978 -0.0103601 -1.79596e-21)
(0.0939053 -0.00757622 0)
(0.0984316 -0.00496243 0)
(0.101617 -0.00254531 1.0431e-22)
(0.103517 -0.000346044 -2.61349e-22)
(0.104201 0.00161982 0)
(0.103751 0.003344 3.34471e-22)
(0.10226 0.00482255 0)
(0.0998278 0.00605748 -1.71813e-21)
(0.0965628 0.00705627 3.97562e-23)
(0.0925754 0.00783118 -3.17745e-23)
(0.0879771 0.00839834 1.63105e-21)
(0.0828779 0.00877693 0)
(0.0773837 0.00898823 -1.85056e-21)
(0.0715946 0.0090548 4.94908e-24)
(0.065603 0.00899969 0)
(0.0594925 0.00884567 0)
(0.0533368 0.00861465 0)
(0.047199 0.00832708 2.18981e-21)
(0.0411318 0.00800149 0)
(0.0351773 0.00765396 0)
(0.0293679 0.00729785 0)
(0.0237275 0.00694347 0)
(0.0182723 0.00659806 0)
(0.0130132 0.00626586 2.36126e-21)
(0.00795683 0.00594848 0)
(0.00310732 0.00564536 2.41687e-21)
(-0.00153223 0.00535441 2.42006e-21)
(-0.00595969 0.00507244 -2.40789e-21)
(-0.0101717 0.00479585 0)
(-0.0141645 0.00452139 -2.37828e-21)
(-0.0179333 0.00424669 0)
(-0.0214736 0.00397033 -2.34427e-21)
(-0.024781 0.00369186 2.3252e-21)