/*--------------------------------*- C++ -*----------------------------------*\
  =========                 |
  \\      /  F ield         | OpenFOAM: The Open Source CFD Toolbox
   \\    /   O peration     | Website:  https://openfoam.org
    \\  /    A nd           | Version:  8
     \\/     M anipulation  |
\*---------------------------------------------------------------------------*/
FoamFile
{
    version     2.0;
    format      ascii;
    class       volScalarField;
    location    "0.92";
    object      p;
}
// * * * * * * * * * * * * * * * * * * * * * * * * * * * * * * * * * * * * * //

dimensions      [0 2 -2 0 0 0 0];

internalField   nonuniform List<scalar> 
12225
(
-0.00168361
-0.00165948
-0.00163587
-0.00161789
-0.0016099
-0.00161382
-0.00163134
-0.00166406
-0.00171387
-0.00178325
-0.00187579
-0.00199711
-0.00215655
-0.0023706
-0.00266969
-0.00311038
-0.00385401
-0.00554073
-0.0016834
-0.00166184
-0.00164066
-0.00162483
-0.00161878
-0.00162449
-0.00164368
-0.00167799
-0.0017293
-0.00180007
-0.00189384
-0.00201599
-0.00217525
-0.00238635
-0.00267436
-0.00308187
-0.00369201
-0.00482294
-0.00168414
-0.00166491
-0.00164641
-0.00163306
-0.00162925
-0.001637
-0.00165807
-0.0016941
-0.00174695
-0.001819
-0.00191357
-0.0020356
-0.00219272
-0.00239686
-0.00266593
-0.00302408
-0.00348258
-0.00418864
-0.00168605
-0.00166836
-0.00165211
-0.00164101
-0.00163925
-0.00164885
-0.00167157
-0.00170901
-0.00176294
-0.00183556
-0.00192985
-0.00205002
-0.00220211
-0.00239464
-0.00263803
-0.00294101
-0.00328131
-0.00372415
-0.00168901
-0.00167217
-0.00165772
-0.00164862
-0.00164871
-0.00165995
-0.00168405
-0.00172253
-0.00177702
-0.00184946
-0.00194232
-0.00205886
-0.00220327
-0.00238049
-0.00259436
-0.00284293
-0.00309406
-0.00336909
-0.00169283
-0.00167633
-0.0016633
-0.00165598
-0.00165772
-0.00167039
-0.0016956
-0.00173476
-0.00178929
-0.00186078
-0.0019511
-0.00206239
-0.00219695
-0.00235644
-0.00253961
-0.00273801
-0.00291992
-0.00308538
-0.00169733
-0.00168076
-0.00166878
-0.00166298
-0.00166616
-0.00168003
-0.00170606
-0.00174549
-0.00179951
-0.00186929
-0.001956
-0.00206068
-0.00218379
-0.0023243
-0.00247754
-0.00263195
-0.00276045
-0.00285577
-0.00170224
-0.00168528
-0.00167401
-0.0016695
-0.00167387
-0.00168867
-0.00171519
-0.00175447
-0.00180741
-0.00187474
-0.0019569
-0.00205385
-0.00216452
-0.00228591
-0.00241138
-0.00252879
-0.00261715
-0.00266906
-0.00170721
-0.0016897
-0.00167884
-0.00167535
-0.00168067
-0.00169611
-0.00172276
-0.00176145
-0.00181276
-0.00187695
-0.00195378
-0.00204227
-0.00214015
-0.00224313
-0.0023439
-0.00243128
-0.00249023
-0.00251597
-0.00171185
-0.00169373
-0.00168306
-0.00168036
-0.00168635
-0.00170214
-0.00172857
-0.00176624
-0.00181541
-0.00187587
-0.00194681
-0.00202646
-0.00211174
-0.00219774
-0.0022773
-0.00234104
-0.00237894
-0.00238913
-0.00171569
-0.00169701
-0.00168642
-0.00168429
-0.00169072
-0.00170655
-0.00173241
-0.00176865
-0.00181522
-0.00187153
-0.00193625
-0.00200707
-0.00208041
-0.00215126
-0.00221312
-0.00225865
-0.00228165
-0.0022827
-0.00171804
-0.00169899
-0.00168843
-0.00168668
-0.00169328
-0.00170888
-0.00173392
-0.00176851
-0.00181238
-0.00186463
-0.00192358
-0.00198659
-0.00204993
-0.00210872
-0.0021573
-0.00218999
-0.0022031
-0.0021989
-0.00171879
-0.00169999
-0.00168947
-0.001688
-0.00169466
-0.00170985
-0.00173382
-0.00176652
-0.00180745
-0.00185546
-0.00190865
-0.00196422
-0.00201845
-0.00206689
-0.00210475
-0.00212783
-0.00213418
-0.00212622
-0.00171716
-0.00169933
-0.00168905
-0.00168784
-0.00169441
-0.00170889
-0.00173136
-0.00176161
-0.00179893
-0.00184201
-0.0018888
-0.00193648
-0.00198156
-0.00202011
-0.00204832
-0.00206327
-0.00206419
-0.00205323
-0.00171151
-0.00169554
-0.00168603
-0.00168513
-0.00169145
-0.00170485
-0.0017253
-0.00175245
-0.00178548
-0.00182297
-0.00186288
-0.00190251
-0.00193873
-0.00196822
-0.00198805
-0.00199626
-0.00199264
-0.0019789
-0.0016995
-0.00168664
-0.00167884
-0.00167848
-0.00168437
-0.00169628
-0.00171409
-0.00173741
-0.0017654
-0.00179667
-0.00182931
-0.00186087
-0.00188865
-0.00190993
-0.00192244
-0.00192482
-0.00191691
-0.00189986
-0.00167835
-0.00167025
-0.00166554
-0.00166615
-0.00167148
-0.00168141
-0.00169585
-0.00171447
-0.00173652
-0.00176078
-0.00178557
-0.0018088
-0.00182818
-0.00184149
-0.00184689
-0.00184333
-0.00183038
-0.00180861
-0.00164589
-0.00164436
-0.00164425
-0.00164637
-0.00165096
-0.00165827
-0.00166839
-0.00168114
-0.00169596
-0.00171189
-0.00172756
-0.00174125
-0.00175109
-0.00175523
-0.00175211
-0.00174066
-0.00172026
-0.00169094
-0.00160332
-0.00160957
-0.00161484
-0.00161843
-0.00162157
-0.00162508
-0.0016293
-0.00163428
-0.00163975
-0.00164506
-0.00164922
-0.00165092
-0.0016487
-0.00164102
-0.00162654
-0.00160414
-0.00157287
-0.00153252
-0.00157161
-0.00158403
-0.00159334
-0.00159763
-0.00159886
-0.00159809
-0.00159578
-0.00159206
-0.00158683
-0.0015797
-0.00157002
-0.00155691
-0.00153933
-0.00151624
-0.00148671
-0.00144996
-0.00140514
-0.00135168
-0.00155619
-0.0015717
-0.00158286
-0.00158727
-0.00158713
-0.00158345
-0.00157658
-0.00156666
-0.00155361
-0.00153718
-0.00151692
-0.00149222
-0.00146237
-0.00142668
-0.00138453
-0.00133544
-0.00127885
-0.0012144
-0.00155189
-0.00156851
-0.00158029
-0.00158475
-0.0015839
-0.00157841
-0.00156846
-0.00155404
-0.00153507
-0.0015113
-0.00148242
-0.00144799
-0.00140759
-0.00136078
-0.00130725
-0.00124684
-0.00117931
-0.00110454
-0.00155496
-0.00157136
-0.00158315
-0.00158794
-0.00158713
-0.00158096
-0.00156935
-0.00155215
-0.00152918
-0.00150016
-0.00146483
-0.00142289
-0.00137406
-0.00131815
-0.00125511
-0.00118501
-0.001108
-0.00102424
-0.00156191
-0.00157745
-0.00158917
-0.00159473
-0.00159471
-0.00158885
-0.00157682
-0.00155831
-0.00153301
-0.00150062
-0.00146085
-0.00141345
-0.00135827
-0.00129528
-0.00122458
-0.00114648
-0.0010614
-0.000969846
-0.00157007
-0.00158466
-0.00159664
-0.00160351
-0.0016049
-0.00160011
-0.0015886
-0.00156991
-0.00154363
-0.00150937
-0.0014668
-0.0014157
-0.00135595
-0.00128761
-0.00121092
-0.00112633
-0.00103448
-0.000936181
-0.00157765
-0.00159166
-0.00160446
-0.00161313
-0.00161639
-0.0016132
-0.00160287
-0.00158481
-0.00155851
-0.00152351
-0.00147943
-0.00142599
-0.0013631
-0.00129084
-0.00120954
-0.00111972
-0.00102219
-0.00091803
-0.00158365
-0.00159773
-0.00161203
-0.00162291
-0.00162835
-0.0016271
-0.00161836
-0.00160147
-0.00157583
-0.0015409
-0.00149622
-0.00144148
-0.00137653
-0.00130148
-0.00121665
-0.00112265
-0.00102034
-0.000911008
-0.00158757
-0.00160266
-0.00161916
-0.00163261
-0.00164045
-0.00164135
-0.00163447
-0.00161911
-0.0015946
-0.00156033
-0.00151575
-0.00146047
-0.0013943
-0.00131729
-0.00122977
-0.00113237
-0.00102597
-0.000911972
-0.0015893
-0.00160646
-0.00162581
-0.00164205
-0.0016524
-0.00165555
-0.00165069
-0.0016371
-0.00161406
-0.00158086
-0.00153689
-0.00148165
-0.00141487
-0.00133656
-0.00124701
-0.00114682
-0.00103688
-0.000918634
-0.00158936
-0.001609
-0.00163096
-0.00164955
-0.00166197
-0.00166699
-0.00166382
-0.00165175
-0.00163002
-0.00159788
-0.00155462
-0.00149967
-0.00143269
-0.00135361
-0.0012627
-0.00116053
-0.00104799
-0.0009265
0.000469301
0.000477762
0.000478109
0.000464612
0.000437253
0.000396939
0.0003446
0.000281251
0.000207957
0.000125769
3.56232e-05
-6.16595e-05
-0.000165382
-0.000274959
-0.000389896
-0.000509755
-0.000634116
-0.000762539
-0.000894524
-0.00102947
-0.00116665
-0.00130514
-0.00144384
-0.00158143
-0.00171632
-0.00184671
-0.00197051
-0.00208541
-0.00218886
-0.0022781
-0.00235022
-0.00240218
-0.00243088
-0.00243324
-0.00240626
-0.00234714
-0.00225336
-0.00212275
-0.00195366
-0.00174497
-0.00149626
-0.00120782
-0.000880738
-0.000516937
-0.000119154
0.000309146
0.000763443
0.00123869
0.00172915
0.00222853
0.00273016
0.0032271
0.00371233
0.00417886
0.00461992
0.00502907
0.00540033
0.00572827
0.00600814
0.00623583
0.00640802
0.00652211
0.00657624
0.00656935
0.00650112
0.00637187
0.00618267
0.00593537
0.0056325
0.00527734
0.0048739
0.00442699
0.00394219
0.00342585
0.00288509
0.00232772
0.00176214
0.00119718
0.000641919
0.000105376
-0.000403492
-0.000876704
-0.00130699
-0.00168829
-0.00201603
-0.0022873
-0.00250101
-0.00265787
-0.00276033
-0.00281235
-0.00281919
-0.00278699
-0.00272248
-0.00263254
-0.00252393
-0.00240297
-0.00227538
-0.00214615
-0.0020195
-0.00189889
-0.00178704
-0.00168595
-0.00159693
-0.00152058
-0.00145682
-0.00140497
-0.00136379
-0.0013317
-0.00130683
-0.00128728
-0.00127122
-0.00125699
-0.00124322
-0.00122883
-0.00121305
-0.00119539
-0.00117563
-0.00115377
-0.00112999
-0.00110461
-0.00107802
-0.00105073
-0.0010232
-0.000995923
-0.000969359
-0.000943904
-0.000919888
-0.000897566
-0.000877112
-0.000858622
-0.000842118
-0.000827558
-0.000814846
-0.000803845
-0.000794383
-0.00078627
-0.000779307
-0.000773289
-0.000768019
-0.000763309
-0.000758985
-0.00075489
-0.000750884
-0.000746846
-0.000742673
-0.000738278
-0.000733591
-0.000728555
-0.000723127
-0.000717277
-0.000710986
-0.000704229
-0.000697011
-0.000689329
-0.00068119
-0.000672602
-0.000663578
-0.000654133
-0.000644282
-0.000634042
-0.000623428
-0.000612452
-0.000601125
-0.000589452
-0.000577431
-0.000565056
-0.000552309
-0.000539167
-0.000525596
-0.000511557
-0.000497007
-0.00048189
-0.000466176
-0.000449838
-0.000432868
-0.000415297
-0.000397211
-0.000378898
-0.000361936
-0.000338632
0.000482409
0.00048997
0.000489757
0.000476867
0.000451906
0.000415955
0.000369832
0.000314303
0.000250155
0.000178129
9.8922e-05
1.31317e-05
-7.87336e-05
-0.000176244
-0.00027903
-0.000386761
-0.000499117
-0.000615751
-0.00073626
-0.000860149
-0.0009868
-0.00111544
-0.00124511
-0.00137465
-0.00150268
-0.00162755
-0.0017474
-0.00186009
-0.00196327
-0.00205435
-0.00213054
-0.00218892
-0.00222646
-0.0022401
-0.00222681
-0.0021837
-0.00210811
-0.0019977
-0.00185056
-0.00166533
-0.00144125
-0.00117829
-0.000877206
-0.000539575
-0.000167735
0.000235034
0.000664739
0.00111649
0.00158475
0.00206343
0.00254601
0.00302566
0.00349543
0.00394837
0.00437773
0.00477703
0.00514026
0.00546194
0.00573723
0.00596196
0.00613272
0.00624683
0.00630238
0.00629815
0.00623371
0.00610942
0.00592642
0.00568657
0.00539242
0.00504728
0.00465522
0.0042211
0.00375055
0.00324999
0.00272658
0.00218813
0.00164302
0.00110002
0.00056805
5.60207e-05
-0.000427725
-0.000875297
-0.00128002
-0.00163639
-0.00194043
-0.00218987
-0.00238421
-0.00252472
-0.00261429
-0.00265719
-0.00265883
-0.00262531
-0.00256312
-0.0024788
-0.00237856
-0.00226815
-0.00215262
-0.00203632
-0.00192285
-0.00181513
-0.0017154
-0.00162531
-0.00154593
-0.00147773
-0.00142063
-0.00137403
-0.00133691
-0.00130788
-0.00128535
-0.00126765
-0.00125317
-0.00124043
-0.00122818
-0.00121542
-0.0012014
-0.00118564
-0.00116788
-0.00114807
-0.00112635
-0.00110296
-0.00107827
-0.00105269
-0.00102669
-0.00100073
-0.000975249
-0.000950632
-0.00092722
-0.000905276
-0.000884995
-0.000866493
-0.000849818
-0.000834957
-0.00082184
-0.000810355
-0.000800356
-0.000791675
-0.000784131
-0.000777535
-0.000771704
-0.000766459
-0.000761635
-0.000757077
-0.000752651
-0.000748236
-0.000743728
-0.00073904
-0.0007341
-0.000728848
-0.000723238
-0.000717235
-0.000710816
-0.000703962
-0.000696667
-0.000688928
-0.000680746
-0.00067213
-0.000663089
-0.000653636
-0.000643784
-0.000633548
-0.000622941
-0.000611975
-0.000600659
-0.000588997
-0.000576989
-0.000564628
-0.000551899
-0.000538782
-0.000525247
-0.000511259
-0.000496781
-0.000481779
-0.000466218
-0.00045008
-0.000433376
-0.000416159
-0.000398545
-0.000380861
-0.000364652
-0.000342384
0.000555547
0.000557125
0.000551152
0.000534433
0.000507808
0.000472304
0.000428619
0.000377332
0.000318995
0.00025411
0.000183107
0.000106333
2.40623e-05
-6.34948e-05
-0.000156177
-0.00025385
-0.000356379
-0.000463603
-0.000575304
-0.000691173
-0.00081078
-0.000933544
-0.0010587
-0.00118529
-0.00131209
-0.00143766
-0.00156026
-0.0016779
-0.00178829
-0.0018889
-0.00197695
-0.00204943
-0.00210322
-0.00213506
-0.00214173
-0.00212005
-0.00206705
-0.00198007
-0.00185683
-0.00169562
-0.00149534
-0.00125564
-0.000977008
-0.000660806
-0.000308811
7.55059e-05
0.000488246
0.000924617
0.0013791
0.00184557
0.00231745
0.00278783
0.00324966
0.0036959
0.00411966
0.00451441
0.00487404
0.005193
0.00546639
0.00569003
0.00586047
0.00597503
0.00603181
0.0060296
0.00596793
0.00584715
0.00566846
0.00543372
0.00514553
0.0048072
0.00442284
0.00399738
0.00353652
0.00304677
0.00253541
0.00201037
0.00148016
0.000953647
0.000439866
-5.22811e-05
-0.000514375
-0.000938755
-0.00131898
-0.00164996
-0.00192824
-0.00215217
-0.002322
-0.00243974
-0.00250907
-0.00253494
-0.00252329
-0.00248059
-0.00241347
-0.00232834
-0.00223108
-0.00212692
-0.00202025
-0.00191468
-0.00181307
-0.00171762
-0.00162998
-0.00155131
-0.00148231
-0.00142326
-0.00137399
-0.00133393
-0.00130216
-0.00127749
-0.00125851
-0.00124378
-0.00123186
-0.00122147
-0.00121146
-0.00120092
-0.00118913
-0.00117563
-0.00116015
-0.0011426
-0.00112307
-0.00110176
-0.00107901
-0.00105518
-0.00103072
-0.00100607
-0.000981649
-0.000957854
-0.000935027
-0.000913446
-0.000893323
-0.000874798
-0.000857945
-0.000842774
-0.000829244
-0.000817267
-0.000806722
-0.000797461
-0.000789321
-0.000782132
-0.000775721
-0.000769921
-0.000764573
-0.000759531
-0.00075466
-0.000749844
-0.000744977
-0.000739973
-0.000734756
-0.000729266
-0.000723454
-0.000717282
-0.00071072
-0.000703755
-0.00069637
-0.000688561
-0.000680327
-0.000671673
-0.000662608
-0.00065314
-0.000643282
-0.000633045
-0.000622442
-0.000611484
-0.000600178
-0.000588528
-0.000576534
-0.000564191
-0.000551486
-0.000538402
-0.000524913
-0.000510991
-0.000496605
-0.00048173
-0.000466341
-0.000450432
-0.000434027
-0.000417198
-0.000400083
-0.000383007
-0.000367668
-0.000345967
0.000687887
0.000678009
0.00066074
0.000635836
0.000603782
0.000565109
0.00052027
0.000469646
0.000413547
0.000352204
0.000285768
0.00021431
0.000137827
5.62522e-05
-3.05266e-05
-0.000122645
-0.000220237
-0.000323407
-0.000432196
-0.00054655
-0.000666284
-0.000791044
-0.000920275
-0.00105318
-0.00118869
-0.00132545
-0.00146175
-0.00159557
-0.00172453
-0.00184592
-0.00195669
-0.00205356
-0.002133
-0.00219134
-0.00222488
-0.00222999
-0.0022032
-0.0021414
-0.00204188
-0.00190257
-0.00172207
-0.00149982
-0.00123608
-0.00093192
-0.000589896
-0.00021294
0.000194729
0.000628068
0.0010813
0.00154801
0.00202131
0.002494
0.00295874
0.00340823
0.00383538
0.00423348
0.00459627
0.00491816
0.00519422
0.00542026
0.0055929
0.00570954
0.00576833
0.00576819
0.00570878
0.00559044
0.00541433
0.00518233
0.00489702
0.0045617
0.00418047
0.00375825
0.0033008
0.00281471
0.00230741
0.00178704
0.00126237
0.000742606
0.000237129
-0.0002448
-0.000694372
-0.00110365
-0.00146597
-0.00177629
-0.00203135
-0.00222992
-0.00237283
-0.00246297
-0.00250496
-0.00250482
-0.00246953
-0.00240647
-0.00232298
-0.00222588
-0.00212117
-0.00201387
-0.00190791
-0.00180623
-0.00171093
-0.00162343
-0.00154464
-0.00147512
-0.00141507
-0.00136445
-0.00132287
-0.00128967
-0.00126392
-0.00124447
-0.00123001
-0.00121921
-0.00121075
-0.00120344
-0.00119625
-0.00118831
-0.00117897
-0.00116778
-0.00115448
-0.00113898
-0.00112135
-0.00110178
-0.00108059
-0.00105813
-0.00103484
-0.00101115
-0.000987499
-0.000964278
-0.000941844
-0.000920489
-0.00090044
-0.000881856
-0.00086483
-0.000849392
-0.000835518
-0.00082314
-0.000812152
-0.000802423
-0.000793803
-0.000786133
-0.00077925
-0.000772996
-0.000767217
-0.000761772
-0.00075653
-0.000751374
-0.000746201
-0.000740924
-0.000735467
-0.000729767
-0.000723774
-0.000717447
-0.000710757
-0.000703684
-0.000696211
-0.000688331
-0.000680043
-0.000671348
-0.000662252
-0.000652763
-0.000642892
-0.000632649
-0.000622045
-0.000611089
-0.000599789
-0.000588148
-0.000576168
-0.000563843
-0.000551164
-0.000538116
-0.000524677
-0.000510825
-0.000496535
-0.000481785
-0.000466561
-0.000450866
-0.000434733
-0.000418242
-0.000401536
-0.000384915
-0.000370025
-0.000349048
0.000862147
0.000836902
0.00080426
0.000767935
0.000727771
0.000683513
0.0006352
0.00058289
0.000526552
0.000466072
0.000401255
0.000331832
0.000257461
0.000177745
9.22408e-05
4.86427e-07
-9.79751e-05
-0.000203564
-0.000316625
-0.000437391
-0.000565936
-0.00070213
-0.000845591
-0.000995638
-0.00115124
-0.00131101
-0.0014731
-0.00163527
-0.00179481
-0.00194861
-0.00209315
-0.00222456
-0.00233872
-0.00243135
-0.00249811
-0.00253475
-0.00253729
-0.00250207
-0.00242604
-0.00230677
-0.0021427
-0.00193315
-0.00167838
-0.00137965
-0.0010395
-0.000661457
-0.000250043
0.000189323
0.000650426
0.0011264
0.00160992
0.00209333
0.00256891
0.00302902
0.00346628
0.00387376
0.00424508
0.00457455
0.00485726
0.00508907
0.0052667
0.00538766
0.00545028
0.00545356
0.00539727
0.00528185
0.00510843
0.0048789
0.00459581
0.00426237
0.00388262
0.00346139
0.00300444
0.00251838
0.00201077
0.00148998
0.000965106
0.000445784
-5.80759e-05
-0.000536616
-0.000980411
-0.00138083
-0.00173061
-0.00202434
-0.00225857
-0.00243213
-0.00254624
-0.0026045
-0.00261256
-0.00257773
-0.00250842
-0.00241345
-0.00230145
-0.00218027
-0.00205657
-0.00193559
-0.00182109
-0.00171552
-0.00162021
-0.00153574
-0.00146214
-0.00139917
-0.00134641
-0.00130327
-0.00126904
-0.0012428
-0.00122347
-0.00120985
-0.00120063
-0.0011945
-0.00119019
-0.00118657
-0.00118267
-0.00117767
-0.00117098
-0.00116217
-0.00115099
-0.00113738
-0.00112141
-0.00110329
-0.00108332
-0.00106189
-0.00103944
-0.0010164
-0.000993233
-0.000970344
-0.000948104
-0.000926821
-0.000906739
-0.000888032
-0.000870807
-0.000855108
-0.000840924
-0.000828199
-0.000816839
-0.000806721
-0.000797706
-0.000789641
-0.000782372
-0.000775744
-0.00076961
-0.00076383
-0.000758276
-0.000752833
-0.0007474
-0.000741888
-0.000736221
-0.000730336
-0.00072418
-0.000717714
-0.000710904
-0.000703728
-0.000696171
-0.000688221
-0.000679876
-0.000671137
-0.000662007
-0.000652492
-0.000642603
-0.000632348
-0.000621737
-0.000610779
-0.000599482
-0.000587848
-0.000575881
-0.000563575
-0.000550923
-0.000537914
-0.000524529
-0.000510751
-0.000496558
-0.000481935
-0.000466873
-0.000451381
-0.000435495
-0.0004193
-0.000402931
-0.000386653
-0.000371894
-0.000351933
0.00105947
0.0010168
0.000966638
0.00091715
0.000867394
0.000816094
0.000762719
0.000706882
0.000648112
0.000585852
0.000519483
0.000448329
0.000371655
0.000288682
0.000198594
0.000100567
-6.20794e-06
-0.000122483
-0.000248911
-0.000385997
-0.000534034
-0.000693051
-0.000862742
-0.00104241
-0.00123091
-0.00142661
-0.00162734
-0.00183038
-0.00203247
-0.00222985
-0.00241829
-0.00259318
-0.00274962
-0.00288259
-0.00298705
-0.00305814
-0.00309129
-0.00308246
-0.00302825
-0.00292607
-0.00277427
-0.00257221
-0.0023203
-0.00202018
-0.00167479
-0.00128809
-0.000865062
-0.000411678
6.52842e-05
0.000558392
0.00105975
0.0015612
0.00205453
0.0025317
0.002985
0.00340725
0.00379192
0.00413327
0.0044264
0.00466727
0.00485274
0.00498051
0.00504907
0.00505764
0.00500609
0.00489493
0.00472535
0.0044992
0.00421893
0.00388766
0.00350925
0.00308843
0.00263082
0.00214305
0.00163271
0.00110839
0.000579514
5.61964e-05
-0.000451032
-0.000931568
-0.00137515
-0.00177231
-0.00211483
-0.00239644
-0.00261311
-0.00276335
-0.00284843
-0.00287237
-0.00284171
-0.00276508
-0.00265252
-0.00251471
-0.00236214
-0.00220431
-0.00204919
-0.00190282
-0.00176924
-0.00165067
-0.00154783
-0.00146041
-0.00138746
-0.00132777
-0.00128003
-0.00124297
-0.00121531
-0.00119573
-0.00118287
-0.00117536
-0.00117179
-0.00117079
-0.00117109
-0.00117157
-0.00117128
-0.00116945
-0.00116552
-0.00115909
-0.00114995
-0.00113806
-0.00112352
-0.00110655
-0.0010875
-0.00106678
-0.00104483
-0.00102215
-0.000999186
-0.000976386
-0.000954137
-0.000932765
-0.000912529
-0.000893616
-0.000876143
-0.000860165
-0.00084568
-0.000832636
-0.000820947
-0.000810496
-0.000801147
-0.000792753
-0.000785163
-0.000778226
-0.000771796
-0.000765736
-0.00075992
-0.000754235
-0.000748579
-0.000742863
-0.000737013
-0.000730963
-0.000724662
-0.000718067
-0.000711145
-0.000703873
-0.000696233
-0.000688214
-0.000679812
-0.000671025
-0.000661856
-0.000652312
-0.0006424
-0.000632128
-0.000621506
-0.000610542
-0.000599244
-0.000587616
-0.000575659
-0.000563373
-0.00055075
-0.000537783
-0.000524456
-0.000510754
-0.000496663
-0.000482169
-0.000467268
-0.000451972
-0.000436319
-0.00042039
-0.00040431
-0.000388305
-0.000373506
-0.000354767
0.00125909
0.00119846
0.00113025
0.00106719
0.00100738
0.000948373
0.000888936
0.000828118
0.000764894
0.000698176
0.000626846
0.000549758
0.000465738
0.000373587
0.000272094
0.00016006
3.63286e-05
-0.000100163
-0.000250333
-0.000414886
-0.00059424
-0.000788452
-0.000997137
-0.0012194
-0.00145375
-0.00169812
-0.00194973
-0.0022052
-0.00246049
-0.002711
-0.00295163
-0.00317691
-0.00338111
-0.00355844
-0.00370317
-0.00380985
-0.00387347
-0.00388966
-0.00385482
-0.00376628
-0.00362244
-0.00342281
-0.00316817
-0.00286062
-0.00250351
-0.0021013
-0.00165959
-0.00118497
-0.000684872
-0.000167392
0.000358935
0.000885346
0.00140308
0.00190362
0.00237887
0.00282137
0.00322442
0.0035822
0.00388984
0.00414342
0.00433999
0.00447746
0.00455456
0.00457073
0.00452601
0.00442104
0.00425703
0.00403576
0.0037596
0.00343149
0.00305511
0.00263498
0.00217657
0.00168639
0.00117209
0.000642375
0.000106991
-0.000423471
-0.000937828
-0.00142466
-0.00187277
-0.00227163
-0.00261189
-0.0028863
-0.00308967
-0.00321982
-0.00327766
-0.00326724
-0.00319567
-0.00307272
-0.00291005
-0.00272041
-0.00251652
-0.00231016
-0.00211123
-0.00192727
-0.0017632
-0.00162144
-0.00150237
-0.00140489
-0.00132701
-0.0012664
-0.00122067
-0.00118762
-0.0011652
-0.00115151
-0.00114476
-0.00114325
-0.00114539
-0.00114968
-0.00115477
-0.00115952
-0.00116298
-0.00116438
-0.00116319
-0.00115904
-0.00115177
-0.00114136
-0.00112795
-0.00111182
-0.00109335
-0.00107298
-0.00105121
-0.00102855
-0.00100551
-0.000982548
-0.000960078
-0.000938445
-0.000917923
-0.00089871
-0.000880931
-0.000864646
-0.000849855
-0.000836511
-0.000824527
-0.000813788
-0.000804159
-0.000795493
-0.000787641
-0.000780452
-0.000773782
-0.000767494
-0.000761463
-0.000755577
-0.000749733
-0.000743845
-0.000737836
-0.000731642
-0.000725211
-0.0007185
-0.000711475
-0.000704112
-0.000696392
-0.000688305
-0.000679844
-0.000671007
-0.000661797
-0.000652219
-0.000642279
-0.000631986
-0.000621349
-0.000610375
-0.000599073
-0.000587447
-0.000575501
-0.000563234
-0.000550642
-0.000537718
-0.000524451
-0.000510831
-0.000496843
-0.000482479
-0.000467738
-0.000452632
-0.000437199
-0.000421512
-0.000405683
-0.000389903
-0.000374969
-0.000357559
0.00143914
0.00136138
0.00127599
0.00119998
0.00113043
0.00106362
0.000997503
0.000930448
0.000860796
0.000786851
0.000706936
0.000619392
0.000522575
0.000414848
0.000294605
0.000160289
1.04366e-05
-0.000156266
-0.000340909
-0.000544284
-0.000766784
-0.00100832
-0.00126823
-0.0015452
-0.00183721
-0.00214148
-0.00245448
-0.00277194
-0.00308891
-0.00339985
-0.00369871
-0.00397915
-0.00423462
-0.00445861
-0.00464478
-0.00478718
-0.00488045
-0.00491998
-0.00490206
-0.00482403
-0.00468437
-0.00448291
-0.00422083
-0.00390065
-0.00352617
-0.00310245
-0.00263573
-0.0021333
-0.00160331
-0.00105459
-0.000496399
6.18036e-05
0.000610631
0.001141
0.00164437
0.00211292
0.00253975
0.00291894
0.00324564
0.00351606
0.00372744
0.00387795
0.00396661
0.00399311
0.0039577
0.00386118
0.0037048
0.00349027
0.00321986
0.00289634
0.00252312
0.0021045
0.00164574
0.00115321
0.00063451
9.84728e-05
-0.000444886
-0.000984517
-0.00150859
-0.00200486
-0.00246112
-0.00286575
-0.00320829
-0.00347993
-0.00367444
-0.00378854
-0.00382235
-0.00377956
-0.00366745
-0.00349653
-0.00327989
-0.00303227
-0.00276886
-0.00250404
-0.00225028
-0.00201726
-0.00181143
-0.00163602
-0.00149147
-0.00137611
-0.00128697
-0.00122051
-0.0011731
-0.00114138
-0.00112234
-0.00111328
-0.00111182
-0.00111582
-0.00112338
-0.00113279
-0.00114259
-0.00115154
-0.00115865
-0.00116316
-0.00116454
-0.00116246
-0.00115678
-0.00114753
-0.00113491
-0.00111925
-0.00110097
-0.00108059
-0.00105864
-0.00103569
-0.00101228
-0.000988901
-0.000965997
-0.000943932
-0.000922992
-0.000903384
-0.000885238
-0.000868613
-0.00085351
-0.000839878
-0.000827627
-0.00081664
-0.000806778
-0.000797893
-0.000789832
-0.000782445
-0.000775585
-0.000769117
-0.000762915
-0.000756866
-0.00075087
-0.000744837
-0.000738694
-0.000732376
-0.00072583
-0.000719013
-0.000711893
-0.000704444
-0.000696648
-0.000688493
-0.000679972
-0.000671083
-0.000661828
-0.000652212
-0.00064224
-0.000631921
-0.000621264
-0.000610277
-0.000598968
-0.000587342
-0.000575404
-0.000563155
-0.000550594
-0.000537715
-0.000524511
-0.000510973
-0.00049709
-0.000482857
-0.000468274
-0.000453352
-0.000438124
-0.000422657
-0.000407047
-0.000391453
-0.00037633
-0.000360279
0.00157791
0.00148501
0.00138442
0.00129693
0.00121851
0.00114415
0.00107092
0.000996455
0.000918397
0.000834396
0.000742183
0.000639564
0.000524413
0.00039467
0.000248354
8.35992e-05
-0.000101297
-0.000307799
-0.00053705
-0.000789775
-0.00106617
-0.00136582
-0.00168757
-0.00202951
-0.00238885
-0.002762
-0.00314449
-0.00353108
-0.00391584
-0.00429225
-0.00465338
-0.00499202
-0.00530089
-0.00557281
-0.00580093
-0.00597889
-0.00610104
-0.00616257
-0.0061597
-0.00608979
-0.00595146
-0.00574491
-0.0054716
-0.00513445
-0.00473778
-0.00428726
-0.0037898
-0.00325344
-0.00268712
-0.00210047
-0.00150358
-0.000906677
-0.000319885
0.000247061
0.000785069
0.00128591
0.00174237
0.00214842
0.00249918
0.00279099
0.00302131
0.00318859
0.00329214
0.00333197
0.00330862
0.00322302
0.0030765
0.00287076
0.00260793
0.00229058
0.0019219
0.00150589
0.00104757
0.00055316
3.01801e-05
-0.000512454
-0.00106448
-0.0016144
-0.00214977
-0.00265752
-0.00312446
-0.00353781
-0.00388584
-0.00415853
-0.00434829
-0.00445043
-0.00446405
-0.00439216
-0.00424176
-0.00402372
-0.00375217
-0.0034436
-0.00311556
-0.00278524
-0.00246802
-0.0021763
-0.00191869
-0.00169983
-0.00152075
-0.00137957
-0.00127252
-0.00119484
-0.00114158
-0.00110804
-0.00109004
-0.00108393
-0.00108656
-0.00109518
-0.00110753
-0.0011216
-0.00113573
-0.00114855
-0.00115902
-0.00116634
-0.00116997
-0.00116961
-0.00116515
-0.00115667
-0.00114444
-0.00112884
-0.00111037
-0.0010896
-0.00106712
-0.00104356
-0.0010195
-0.000995467
-0.00097193
-0.000949274
-0.000927796
-0.000907708
-0.000889139
-0.000872146
-0.000856724
-0.000842816
-0.000830324
-0.000819124
-0.000809071
-0.000800012
-0.000791791
-0.000784252
-0.000777248
-0.000770642
-0.000764307
-0.00075813
-0.000752009
-0.000745858
-0.000739601
-0.000733174
-0.000726526
-0.000719614
-0.000712405
-0.000704874
-0.000697002
-0.000688779
-0.000680196
-0.000671252
-0.000661948
-0.000652289
-0.000642281
-0.000631932
-0.000621251
-0.000610246
-0.000598925
-0.000587296
-0.000575365
-0.000563133
-0.000550601
-0.000537768
-0.000524627
-0.000511172
-0.000497395
-0.000483291
-0.000468861
-0.000454114
-0.00043908
-0.000423811
-0.000408392
-0.000392952
-0.000377614
-0.000362883
0.00165528
0.00155021
0.00143738
0.00134046
0.0012544
0.00117296
0.00109231
0.00100934
0.000920944
0.000824132
0.000716035
0.000593933
0.000455235
0.000297488
0.000118388
-8.41709e-05
-0.000312036
-0.000566708
-0.000849245
-0.00116015
-0.00149925
-0.00186563
-0.00225749
-0.00267215
-0.00310596
-0.00355437
-0.00401194
-0.00447245
-0.00492898
-0.00537411
-0.00580003
-0.00619878
-0.0065624
-0.00688315
-0.0071537
-0.00736731
-0.00751804
-0.00760091
-0.00761204
-0.00754879
-0.00740994
-0.0071959
-0.0069084
-0.00655075
-0.00612779
-0.00564578
-0.00511237
-0.00453635
-0.00392753
-0.00329643
-0.00265402
-0.00201144
-0.00137965
-0.000769143
-0.000189672
0.000350012
0.00084234
0.00128105
0.00166125
0.00197935
0.00223304
0.00242106
0.00254307
0.00259942
0.00259096
0.00251883
0.0023845
0.00218964
0.00193625
0.00162673
0.00126401
0.000851815
0.00039491
-0.000100679
-0.000627502
-0.00117658
-0.0017374
-0.00229808
-0.00284553
-0.0033659
-0.00384502
-0.00426901
-0.0046249
-0.00490134
-0.00508953
-0.00518328
-0.00518047
-0.00508319
-0.00489787
-0.00463533
-0.00431032
-0.0039407
-0.00354611
-0.00314646
-0.00276018
-0.00240272
-0.00208538
-0.0018148
-0.00159312
-0.00141872
-0.00128728
-0.00119297
-0.00112948
-0.00109068
-0.00107107
-0.00106587
-0.00107104
-0.0010831
-0.0010993
-0.00111727
-0.00113509
-0.00115125
-0.00116457
-0.00117422
-0.00117965
-0.00118055
-0.00117685
-0.00116871
-0.00115643
-0.00114048
-0.00112141
-0.00109988
-0.00107655
-0.00105209
-0.00102712
-0.00100222
-0.00097788
-0.0009545
-0.000932385
-0.000911749
-0.000892717
-0.000875338
-0.000859597
-0.000845427
-0.000832719
-0.000821339
-0.000811133
-0.000801941
-0.000793599
-0.000785948
-0.000778837
-0.000772127
-0.00076569
-0.00075941
-0.000753189
-0.000746937
-0.000740581
-0.000734058
-0.000727317
-0.000720315
-0.00071302
-0.000705407
-0.00069746
-0.000689165
-0.000680518
-0.000671514
-0.000662157
-0.000652451
-0.000642401
-0.000632016
-0.000621305
-0.000610278
-0.000598942
-0.000587307
-0.000575379
-0.000563162
-0.000550659
-0.000537869
-0.00052479
-0.000511417
-0.000497743
-0.000483765
-0.000469482
-0.000454901
-0.000440045
-0.000424955
-0.000409701
-0.000394391
-0.000378832
-0.000365322
0.00165452
0.00154105
0.00141962
0.00131579
0.00122359
0.00113568
0.00104742
0.00095494
0.000854471
0.00074237
0.000615208
0.00046977
0.000303046
0.000112239
-0.000105209
-0.00035156
-0.000628706
-0.000938069
-0.00128049
-0.00165611
-0.00206427
-0.00250339
-0.00297095
-0.00346339
-0.00397616
-0.00450374
-0.00503972
-0.00557691
-0.0061075
-0.0066232
-0.00711545
-0.00757557
-0.007995
-0.00836543
-0.00867909
-0.00892886
-0.00910848
-0.00921274
-0.00923759
-0.00918032
-0.00903983
-0.00881668
-0.00851277
-0.0081318
-0.00767909
-0.00716152
-0.00658746
-0.00596653
-0.00530942
-0.00462764
-0.00393314
-0.00323804
-0.00255428
-0.00189322
-0.00126539
-0.000680176
-0.000145607
0.000331768
0.00074694
0.0010964
0.00137803
0.00159088
0.001735
0.0018111
0.00182039
0.00176429
0.0016444
0.00146244
0.0012203
0.000920203
0.000564842
0.000157669
-0.000296807
-0.000792748
-0.00132278
-0.00187786
-0.00244725
-0.00301863
-0.00357834
-0.00411174
-0.00460374
-0.00503937
-0.00540449
-0.00568646
-0.00587526
-0.00596341
-0.00594743
-0.00582837
-0.00561191
-0.00530852
-0.00493319
-0.00450471