/*--------------------------------*- C++ -*----------------------------------*\
  =========                 |
  \\      /  F ield         | OpenFOAM: The Open Source CFD Toolbox
   \\    /   O peration     | Website:  https://openfoam.org
    \\  /    A nd           | Version:  8
     \\/     M anipulation  |
\*---------------------------------------------------------------------------*/
FoamFile
{
    version     2.0;
    format      ascii;
    class       surfaceScalarField;
    location    "0.92";
    object      phi;
}
// * * * * * * * * * * * * * * * * * * * * * * * * * * * * * * * * * * * * * //

dimensions      [0 3 -1 0 0 0 0];

internalField   nonuniform List<scalar> 
24170
(
-1.99487e-12
1.99487e-12
3.73678e-12
-5.73165e-12
1.62778e-11
-1.2541e-11
3.41496e-11
-1.78719e-11
5.62365e-11
-2.20869e-11
8.18264e-11
-2.55898e-11
1.10441e-10
-2.86144e-11
1.41752e-10
-3.13109e-11
1.75545e-10
-3.37932e-11
2.11724e-10
-3.61788e-11
2.50327e-10
-3.86036e-11
2.91529e-10
-4.12021e-11
3.35531e-10
-4.40015e-11
3.81969e-10
-4.64377e-11
4.26774e-10
-4.48057e-11
4.45583e-10
-1.88082e-11
3.55206e-10
9.03766e-11
1.21579e-09
-8.60587e-10
-2.07656e-12
4.07143e-12
1.7373e-11
-2.51812e-11
5.7506e-11
-5.2674e-11
1.13959e-10
-7.43244e-11
1.8346e-10
-9.1588e-11
2.63718e-10
-1.05848e-10
3.53102e-10
-1.17998e-10
4.50361e-10
-1.2857e-10
5.54485e-10
-1.37918e-10
6.64626e-10
-1.46319e-10
7.79962e-10
-1.5394e-10
8.9933e-10
-1.6057e-10
1.02008e-09
-1.64753e-10
1.13464e-09
-1.60993e-10
1.21944e-09
-1.29604e-10
1.19931e-09
1.32028e-12
8.05179e-10
4.84504e-10
2.69067e-09
-6.69695e-10
1.47623e-12
2.59521e-12
3.85739e-11
-6.22788e-11
1.10861e-10
-1.24961e-10
2.11322e-10
-1.74785e-10
3.34451e-10
-2.14718e-10
4.76152e-10
-2.47549e-10
6.3333e-10
-2.75176e-10
8.03418e-10
-2.98658e-10
9.84079e-10
-3.18579e-10
1.17292e-09
-3.35163e-10
1.36702e-09
-3.4804e-10
1.56177e-09
-3.5532e-10
1.74803e-09
-3.51012e-10
1.90491e-09
-3.17874e-10
1.98131e-09
-2.06003e-10
1.84998e-09
1.32654e-10
1.19082e-09
1.14366e-09
4.22087e-09
-3.39378e-10
8.54361e-12
-5.9484e-12
6.79647e-11
-1.217e-10
1.77366e-10
-2.34363e-10
3.27422e-10
-3.24841e-10
5.10322e-10
-3.97617e-10
7.19945e-10
-4.57173e-10
9.51383e-10
-5.06614e-10
1.20027e-09
-5.47547e-10
1.46228e-09
-5.80584e-10
1.7325e-09
-6.05382e-10
2.00443e-09
-6.19978e-10
2.26784e-09
-6.18725e-10
2.50396e-09
-5.87129e-10
2.67523e-09
-4.89151e-10
2.70396e-09
-2.34728e-10
2.43485e-09
4.01768e-10
1.59899e-09
1.97952e-09
5.72011e-09
9.97455e-11
1.92357e-11
-2.51841e-11
1.05959e-10
-2.08424e-10
2.57676e-10
-3.86079e-10
4.62857e-10
-5.30022e-10
7.1133e-10
-6.4609e-10
9.94728e-10
-7.40571e-10
1.30594e-09
-8.17826e-10
1.63825e-09
-8.79861e-10
1.98457e-09
-9.26897e-10
2.3364e-09
-9.57213e-10
2.68222e-09
-9.65802e-10
3.00429e-09
-9.40791e-10
3.27246e-09
-8.55305e-10
3.43292e-09
-6.4961e-10
3.39004e-09
-1.91845e-10
2.9894e-09
8.02413e-10
2.04907e-09
2.91984e-09
7.13762e-09
6.31566e-10
3.34257e-11
-5.86098e-11
1.52591e-10
-3.27589e-10
3.51814e-10
-5.85303e-10
6.17309e-10
-7.95516e-10
9.36463e-10
-9.65244e-10
1.29845e-09
-1.10255e-09
1.69353e-09
-1.21291e-09
2.11207e-09
-1.2984e-09
2.5434e-09
-1.35822e-09
2.97442e-09
-1.38823e-09
3.38735e-09
-1.37874e-09
3.75587e-09
-1.30931e-09
4.03853e-09
-1.13796e-09
4.16902e-09
-7.80098e-10
4.04599e-09
-6.88169e-11
3.53819e-09
1.31021e-09
2.55375e-09
3.90428e-09
8.43839e-09
1.25298e-09
5.08305e-11
-1.0944e-10
2.07386e-10
-4.84145e-10
4.58946e-10
-8.36862e-10
7.89208e-10
-1.12578e-09
1.18302e-09
-1.35905e-09
1.62686e-09
-1.54639e-09
2.108e-09
-1.69406e-09
2.61328e-09
-1.80369e-09
3.12773e-09
-1.87268e-09
3.63282e-09
-1.89331e-09
4.10379e-09
-1.84971e-09
4.50572e-09
-1.71123e-09
4.78779e-09
-1.42004e-09
4.87729e-09
-8.69602e-10
4.67922e-09
1.29257e-10
4.09862e-09
1.89081e-09
3.12103e-09
4.88187e-09
9.60217e-09
1.95725e-09
7.09505e-11
-1.80391e-10
2.69225e-10
-6.8242e-10
5.77115e-10
-1.14475e-09
9.7536e-10
-1.52402e-09
1.44612e-09
-1.82981e-09
1.973e-09
-2.07327e-09
2.53992e-09
-2.26098e-09
3.12973e-09
-2.3935e-09
3.72262e-09
-2.46556e-09
4.29414e-09
-2.46483e-09
4.81259e-09
-2.36816e-09
5.23558e-09
-2.13422e-09
5.50639e-09
-1.69085e-09
5.55287e-09
-9.16085e-10
5.29597e-09
3.86164e-10
4.68165e-09
2.50512e-09
3.75415e-09
5.80937e-09
1.06147e-08
2.74158e-09
9.30358e-11
-2.73427e-10
3.36209e-10
-9.25592e-10
7.02971e-10
-1.51151e-09
1.17054e-09
-1.9916e-09
1.71823e-09
-2.3775e-09
2.3266e-09
-2.68165e-09
2.97602e-09
-2.9104e-09
3.64507e-09
-3.06254e-09
4.30885e-09
-3.12934e-09
4.93709e-09
-3.09307e-09
5.49193e-09
-2.923e-09
5.92572e-09
-2.56801e-09
6.18022e-09
-1.94535e-09
6.19036e-09
-9.26217e-10
5.89903e-09
6.7749e-10
5.29124e-09
3.11291e-09
4.4508e-09
6.6498e-09
1.14637e-08
3.60182e-09
1.16048e-10
-3.89475e-10
4.05529e-10
-1.21507e-09
8.3151e-10
-1.9375e-09
1.3671e-09
-2.52719e-09
1.98862e-09
-2.99901e-09
2.67356e-09
-3.36659e-09
3.39868e-09
-3.63552e-09
4.13828e-09
-3.80215e-09
4.86261e-09
-3.85368e-09
5.53627e-09
-3.76673e-09
6.11683e-09
-3.50356e-09
6.55436e-09
-3.00555e-09
6.79358e-09
-2.18457e-09
6.78155e-09
-9.14186e-10
6.48549e-09
9.73553e-10
5.92339e-09
3.67501e-09
5.20218e-09
7.37101e-09
1.21362e-08
4.52973e-09
1.38767e-10
-5.28241e-10
4.73382e-10
-1.54969e-09
9.55836e-10
-2.41995e-09
1.55461e-09
-3.12596e-09
2.24296e-09
-3.68736e-09
2.99543e-09
-4.11906e-09
3.78539e-09
-4.42547e-09
4.58326e-09
-4.60002e-09
5.35517e-09
-4.62559e-09
6.06189e-09
-4.47345e-09
6.65865e-09
-4.10032e-09
7.09654e-09
-3.44344e-09
7.32717e-09
-2.4152e-09
7.31286e-09
-8.99874e-10
7.04433e-09
1.24209e-09
6.56475e-09
4.15458e-09
5.99138e-09
7.94438e-09
1.26173e-08
5.51026e-09
1.33784e-10
-6.62025e-10
4.47432e-10
-1.86334e-09
8.93346e-10
-2.86586e-09
1.44082e-09
-3.67344e-09
2.06487e-09
-4.31141e-09
2.74203e-09
-4.79622e-09
3.44762e-09
-5.13106e-09
4.15431e-09
-5.30672e-09
4.83125e-09
-5.30252e-09
5.44379e-09
-5.08599e-09
5.9543e-09
-4.61083e-09
6.32466e-09
-3.8138e-09
6.52156e-09
-2.6121e-09
6.52572e-09
-9.04029e-10
6.3451e-09
1.42271e-09
6.02944e-09
4.47024e-09
5.67862e-09
8.29521e-09
1.28634e-08
5.43253e-09
1.68032e-10
-8.30057e-10
5.57426e-10
-2.25273e-09
1.10312e-09
-3.41156e-09
1.76634e-09
-4.33665e-09
2.5163e-09
-5.06138e-09
3.32434e-09
-5.60426e-09
4.16041e-09
-5.96713e-09
4.99151e-09
-6.13781e-09
5.78106e-09
-6.09207e-09
6.48939e-09
-5.79433e-09
7.07571e-09
-5.19715e-09
7.5021e-09
-4.24019e-09
7.74046e-09
-2.85046e-09
7.78261e-09
-9.46174e-10
7.65239e-09
1.55292e-09
7.41618e-09
4.70645e-09
7.18465e-09
8.52674e-09
1.29514e-08
7.09664e-09
2.03412e-10
-1.03347e-09
6.7087e-10
-2.72019e-09
1.31714e-09
-4.05783e-09
2.09431e-09
-5.11382e-09
2.9657e-09
-5.93277e-09
3.89755e-09
-6.53611e-09
4.85495e-09
-6.92453e-09
5.80004e-09
-7.08291e-09
6.69204e-09
-6.98406e-09
7.48861e-09
-6.5909e-09
8.14921e-09
-5.85775e-09
8.64053e-09
-4.7315e-09
8.94435e-09
-3.15428e-09
9.06727e-09
-1.0691e-09
9.05018e-09
1.57001e-09
8.97355e-09
4.78308e-09
8.95323e-09
8.54705e-09
1.27824e-08
9.1222e-09
2.31893e-10
-1.26536e-09
7.60856e-10
-3.24915e-09
1.48356e-09
-4.78054e-09
2.34355e-09
-5.97381e-09
3.29966e-09
-6.88888e-09
4.31483e-09
-7.55129e-09
5.35149e-09
-7.96118e-09
6.36992e-09
-8.10134e-09
7.32887e-09
-7.94301e-09
8.18802e-09
-7.45006e-09
8.91243e-09
-6.58216e-09
9.47882e-09
-5.29789e-09
9.88323e-09
-3.55869e-09
1.01489e-08
-1.3348e-09
1.03321e-08
1.38683e-09
1.05221e-08
4.59306e-09
1.08333e-08
8.23589e-09
1.22283e-08
1.13874e-08
2.37176e-10
-1.50254e-09
7.74221e-10
-3.7862e-09
1.50046e-09
-5.50677e-09
2.35626e-09
-6.82961e-09
3.30055e-09
-7.83317e-09
4.29774e-09
-8.54847e-09
5.31292e-09
-8.97637e-09
6.31063e-09
-9.09904e-09
7.256e-09
-8.88837e-09
8.11797e-09
-8.31203e-09
8.87413e-09
-7.33833e-09
9.5167e-09
-5.94046e-09
1.00588e-08
-4.10077e-09
1.05393e-08
-1.81534e-09
1.1025e-08
9.01183e-10
1.16066e-08
4.01138e-09
1.23899e-08
7.45268e-09
1.11382e-08
1.34799e-08
1.91377e-10
-1.69392e-09
6.20265e-10
-4.21509e-09
1.19429e-09
-6.0808e-09
1.8649e-09
-7.50022e-09
2.60118e-09
-8.56945e-09
3.37831e-09
-9.32561e-09
4.17362e-09
-9.77168e-09
4.96589e-09
-9.89131e-09
5.73679e-09
-9.65928e-09
6.47402e-09
-9.04926e-09
7.17535e-09
-8.03966e-09
7.85313e-09
-6.61824e-09
8.53803e-09
-4.78567e-09
9.28099e-09
-2.55829e-09
1.01523e-08
2.98703e-11
1.12359e-08
2.92776e-09
1.26217e-08
6.06687e-09
9.36642e-09
1.43935e-08
5.40044e-11
-1.74792e-09
1.68876e-10
-4.32996e-09
3.17075e-10
-6.229e-09
4.87144e-10
-7.67029e-09
6.75428e-10
-8.75773e-09
8.82227e-10
-9.53241e-09
1.11073e-09
-1.00002e-08
1.36733e-09
-1.01479e-08
1.66287e-09
-9.95482e-09
2.01457e-09
-9.40096e-09
2.44827e-09
-8.47336e-09
3.0004e-09
-7.17036e-09
3.71891e-09
-5.50419e-09
4.66272e-09
-3.5021e-09
5.89866e-09
-1.20607e-09
7.49761e-09
1.32881e-09
9.52723e-09
4.03725e-09
6.84788e-09
1.20458e-08
-2.17104e-10
-1.53082e-09
-7.07936e-10
-3.83912e-09
-1.37269e-09
-5.56425e-09
-2.15294e-09
-6.89003e-09
-3.00467e-09
-7.90601e-09
-3.88637e-09
-8.6507e-09
-4.75443e-09
-9.13212e-09
-5.56108e-09
-9.34126e-09
-6.2537e-09
-9.2622e-09
-6.77473e-09
-8.87992e-09
-7.06209e-09
-8.186e-09
-7.05016e-09
-7.18229e-09
-6.67138e-09
-5.88296e-09
-5.85876e-09
-4.31472e-09
-4.54909e-09
-2.51574e-09
-2.68685e-09
-5.33423e-10
-2.27368e-10
1.57776e-09
3.76093e-09
2.85957e-09
-3.13145e-10
-1.21767e-09
-1.02237e-09
-3.1299e-09
-1.98651e-09
-4.60011e-09
-3.12744e-09
-5.7491e-09
-4.38996e-09
-6.6435e-09
-5.72479e-09
-7.31587e-09
-7.08185e-09
-7.77506e-09
-8.40785e-09
-8.01527e-09
-9.64589e-09
-8.02416e-09
-1.07364e-08
-7.78937e-09
-1.16189e-08
-7.30349e-09
-1.22339e-08
-6.56737e-09
-1.2525e-08
-5.59185e-09
-1.24417e-08
-4.39805e-09
-1.1941e-08
-3.01637e-09
-1.09898e-08
-1.48463e-09
-9.56647e-09
1.5442e-10
1.85538e-09
-7.66092e-09
-3.3412e-10
-8.83551e-10
-1.09618e-09
-2.36784e-09
-2.14232e-09
-3.55397e-09
-3.39408e-09
-4.49734e-09
-4.79591e-09
-5.24166e-09
-6.29849e-09
-5.81329e-09
-7.85207e-09
-6.22148e-09
-9.40393e-09
-6.46341e-09
-1.08981e-08
-6.52998e-09
-1.22764e-08
-6.41111e-09
-1.348e-08
-6.09982e-09
-1.44522e-08
-5.59519e-09
-1.51402e-08
-4.9039e-09
-1.54976e-08
-4.04064e-09
-1.54865e-08
-3.02747e-09
-1.50787e-08
-1.89238e-09
-1.42568e-08
-6.67464e-10
6.12833e-10
-1.30143e-08
-2.9735e-10
-5.862e-10
-9.87448e-10
-1.67774e-09
-1.95033e-09
-2.59109e-09
-3.1194e-09
-3.32827e-09
-4.44586e-09
-3.9152e-09
-5.88601e-09
-4.37314e-09
-7.396e-09
-4.71149e-09
-8.9296e-09
-4.92981e-09
-1.04377e-08
-5.02189e-09
-1.1869e-08
-4.97978e-09
-1.31717e-08
-4.79719e-09
-1.4295e-08
-4.47188e-09
-1.51918e-08
-4.00706e-09
-1.58205e-08
-3.41194e-09
-1.61467e-08
-2.70131e-09
-1.61444e-08
-1.89461e-09
-1.57972e-08
-1.01466e-09
-8.65023e-11
-1.50979e-08
-2.34222e-10
-3.51978e-10
-7.95299e-10
-1.11666e-09
-1.59724e-09
-1.78915e-09
-2.5885e-09
-2.33702e-09
-3.72873e-09
-2.77497e-09
-4.98157e-09
-3.1203e-09
-6.311e-09
-3.38205e-09
-7.67941e-09
-3.5614e-09
-9.04688e-09
-3.65441e-09
-1.03715e-08
-3.65517e-09
-1.16104e-08
-3.55834e-09
-1.27211e-08
-3.36115e-09
-1.36636e-08
-3.06455e-09
-1.44019e-08
-2.67366e-09
-1.49055e-08
-2.19772e-09
-1.51506e-08
-1.64945e-09
-1.51211e-08
-1.04418e-09
-3.99204e-10
-1.48084e-08
-1.66113e-10
-1.85866e-10
-5.8657e-10
-6.96204e-10
-1.20815e-09
-1.16757e-09
-1.99262e-09
-1.55255e-09
-2.90754e-09
-1.86006e-09
-3.92378e-09
-2.10405e-09
-5.01321e-09
-2.29262e-09
-6.14695e-09
-2.42766e-09
-7.29447e-09
-2.50689e-09
-8.42349e-09
-2.52615e-09
-9.50056e-09
-2.48127e-09
-1.04921e-08
-2.3696e-09
-1.13658e-08
-2.19083e-09
-1.2092e-08
-1.94747e-09
-1.26449e-08
-1.64487e-09
-1.30035e-08
-1.29081e-09
-1.31527e-08
-8.95004e-10
-4.68677e-10
-1.30832e-08
-1.05402e-10
-8.04634e-11
-3.98927e-10
-4.0268e-10
-8.5306e-10
-7.13434e-10
-1.43958e-09
-9.66023e-10
-2.1328e-09
-1.16684e-09
-2.91017e-09
-1.32668e-09
-3.75071e-09
-1.45209e-09
-4.63336e-09
-1.545e-09
-5.53603e-09
-1.60422e-09
-6.43519e-09
-1.62698e-09
-7.30614e-09
-1.61033e-09
-8.12366e-09
-1.55208e-09
-8.86301e-09
-1.45148e-09
-9.50095e-09
-1.30953e-09
-1.00168e-08
-1.12905e-09
-1.03931e-08
-9.14465e-10
-1.06166e-08
-6.71513e-10
-4.06935e-10
-1.06784e-08
-5.78069e-11
-2.26565e-11
-2.48864e-10
-2.11623e-10
-5.62514e-10
-3.99784e-10
-9.7759e-10
-5.50947e-10
-1.47422e-09
-6.70213e-10
-2.03564e-09
-7.65257e-10
-2.64699e-09
-8.40744e-10
-3.29376e-09
-8.98227e-10
-3.96086e-09
-9.37125e-10
-4.63207e-09
-9.55768e-10
-5.29015e-09
-9.52247e-10
-5.9172e-09
-9.25034e-10
-6.49529e-09
-8.73383e-10
-7.00728e-09
-7.97548e-10
-7.43748e-09
-6.98842e-10
-7.77238e-09
-5.79561e-10
-8.0011e-09
-4.42794e-10
-2.92191e-10
-8.11585e-09
-2.4714e-11
2.05756e-12
-1.39579e-10
-9.67578e-11
-3.42742e-10
-1.96621e-10
-6.18236e-10
-2.75453e-10
-9.5139e-10
-3.37058e-10
-1.33049e-09
-3.86157e-10
-1.74566e-09
-4.25571e-10
-2.1876e-09
-4.56288e-10
-2.64667e-09
-4.78058e-10
-3.11244e-09
-4.89993e-10
-3.57366e-09
-4.91032e-10
-4.01842e-09
-4.80268e-10
-4.43463e-09
-4.57176e-10
-4.81045e-09
-4.21728e-10
-5.13486e-09
-3.74436e-10
-5.39809e-09
-3.16329e-10
-5.59202e-09
-2.48861e-10
-1.73735e-10
-5.71048e-09
-5.0616e-12
7.11916e-12
-6.70589e-11
-3.47605e-11
-1.8715e-10
-7.653e-11
-3.5378e-10
-1.08823e-10
-5.57053e-10
-1.33786e-10
-7.89532e-10
-1.53677e-10
-1.04529e-09
-1.69809e-10
-1.31894e-09
-1.82645e-10
-1.6049e-09
-1.92099e-10
-1.89709e-09
-1.97796e-10
-2.18885e-09
-1.99273e-10
-2.47301e-09
-1.96117e-10
-2.74212e-09
-1.88058e-10
-2.98882e-09
-1.75026e-10
-3.20609e-09
-1.57167e-10
-3.38759e-09
-1.34835e-10
-3.52789e-09
-1.08559e-10
-7.89631e-11
-3.62266e-09
3.58144e-12
3.53771e-12
-2.42113e-11
-6.96772e-12
-8.38909e-11
-1.68504e-11
-1.68392e-10
-2.43216e-11
-2.72158e-10
-3.00198e-11
-3.91274e-10
-3.45609e-11
-5.22796e-10
-3.82868e-11
-6.64122e-10
-4.13184e-11
-8.12583e-10
-4.36377e-11
-9.65225e-10
-4.51539e-11
-1.11875e-09
-4.57518e-11
-1.26954e-09
-4.53248e-11
-1.4138e-09
-4.37971e-11
-1.54769e-09
-4.11374e-11
-1.66749e-09
-3.73636e-11
-1.76978e-09
-3.25423e-11
-1.85158e-09
-2.67679e-11
-2.01764e-11
-1.91036e-09
3.53771e-12
-3.43001e-12
-2.02804e-11
-4.46021e-11
-7.46218e-11
-1.09183e-10
-1.47469e-10
-1.88788e-10
-2.32426e-10
-2.7758e-10
-3.23331e-10
-3.68656e-10
-4.12453e-10
-4.53591e-10
-4.90954e-10
-5.23497e-10
-5.50264e-10
-5.70441e-10
4.12738e-11
-4.12738e-11
1.39843e-10
-9.85689e-11
2.69357e-10
-1.29515e-10
4.06356e-10
-1.36999e-10
5.32674e-10
-1.26318e-10
6.34794e-10
-1.0212e-10
7.03054e-10
-6.82603e-11
7.30893e-10
-2.78386e-11
7.14061e-10
1.6832e-11
6.50143e-10
6.39178e-11
5.37854e-10
1.12289e-10
3.76683e-10
1.61171e-10
1.66536e-10
2.10147e-10
-9.25244e-11
2.59061e-10
-4.00463e-10
3.07939e-10
-7.57379e-10
3.56916e-10
-1.16355e-09
4.06169e-10
-1.61943e-09
4.55878e-10
-2.1256e-09
5.06173e-10
-2.6827e-09
5.57096e-10
-3.29127e-09
6.08576e-10
-3.95168e-09
6.60404e-10
-4.6639e-09
7.12223e-10
-5.42742e-09
7.63518e-10
-6.24104e-09
8.13619e-10
-7.10275e-09
8.61709e-10
-8.00958e-09
9.06836e-10
-8.95751e-09
9.4793e-10
-9.94134e-09
9.83832e-10
-1.09547e-08
1.01331e-09
-1.19898e-08
1.03511e-09
-1.30377e-08
1.04796e-09
-1.40884e-08
1.05065e-09
-1.51304e-08
1.04204e-09
-1.61515e-08
1.02111e-09
-1.71385e-08
9.87011e-10
-1.80776e-08
9.39103e-10
-1.89546e-08
8.76987e-10
-1.97552e-08
8.00543e-10
-2.04651e-08
7.09955e-10
-2.10709e-08
6.05723e-10
-2.15595e-08
4.88677e-10
-2.19195e-08
3.59969e-10
-2.21405e-08
2.21048e-10
-2.22143e-08
7.37972e-11
-2.21337e-08
-8.06678e-11
-2.18946e-08
-2.39066e-10
-2.14949e-08
-3.9966e-10
-2.09349e-08
-5.60048e-10
-2.0217e-08
-7.17855e-10
-1.93462e-08
-8.70804e-10
-1.83295e-08
-1.01676e-09
-1.71757e-08
-1.15377e-09
-1.58956e-08
-1.28016e-09
-1.4501e-08
-1.39451e-09
-1.30053e-08
-1.49575e-09
-1.14222e-08
-1.58309e-09
-9.76612e-09
-1.65608e-09
-8.05157e-09
-1.71455e-09
-6.29298e-09
-1.75859e-09
-4.50452e-09
-1.78846e-09
-2.69994e-09
-1.80458e-09
-8.92606e-10
-1.80734e-09
9.04658e-10
-1.79726e-09
2.67952e-09
-1.77486e-09
4.41981e-09
-1.74028e-09
6.11345e-09
-1.69365e-09
7.74851e-09
-1.63506e-09
9.31293e-09
-1.56441e-09
1.07944e-08
-1.48144e-09
1.21802e-08
-1.38581e-09
1.34574e-08
-1.27719e-09
1.46127e-08
-1.15535e-09
1.5633e-08
-1.02027e-09
1.65052e-08
-8.72243e-10
1.72172e-08
-7.12e-10
1.7758e-08
-5.40796e-10
1.81185e-08
-3.60494e-10
1.82922e-08
-1.73658e-10
1.8275e-08
1.72088e-11
1.80679e-08
2.07066e-10
1.76749e-08
3.92968e-10
1.71048e-08
5.70132e-10
1.63707e-08
7.34073e-10
1.54903e-08
8.80441e-10
1.4485e-08
1.00532e-09
1.33795e-08
1.10546e-09
1.22009e-08
1.17857e-09
1.09775e-08
1.22343e-09
9.73751e-09
1.24001e-09
8.508e-09
1.22951e-09
7.3138e-09
1.1942e-09
6.17648e-09
1.13732e-09
5.11376e-09
1.06272e-09
4.13909e-09
9.74677e-10
3.26154e-09
8.77551e-10
2.48595e-09
7.75583e-10
1.81322e-09
6.72732e-10
1.24063e-09
5.72588e-10
7.62311e-10
4.78323e-10
3.69666e-10
3.92645e-10
5.19549e-11
3.17711e-10
-2.03056e-10
2.55011e-10
-4.08261e-10
2.05204e-10
-5.76294e-10
1.68034e-10
-7.18672e-10
1.42377e-10
-8.45049e-10
1.26377e-10
-9.62748e-10
1.17699e-10
-1.07658e-09
1.13831e-10
-1.18896e-09
1.12384e-10
-1.30029e-09
1.11329e-10
-1.40942e-09
1.09127e-10
-1.51419e-09
1.04775e-10
-1.61196e-09
9.77707e-11
-1.7e-09
8.8032e-11
-1.77579e-09
7.57946e-11
-1.8373e-09
6.1513e-11
-1.88308e-09
4.57715e-11
-1.91229e-09
2.92133e-11
-1.92478e-09
1.24925e-11
-1.92095e-09
-3.83179e-12
-1.9018e-09
-1.91509e-11
-1.86872e-09
-3.30758e-11
-1.82347e-09
-4.52493e-11
-1.76804e-09
-5.54368e-11
-1.70453e-09
-6.35098e-11
-1.63509e-09
-6.94387e-11
-1.56181e-09
-7.32812e-11
-1.48664e-09
-7.5168e-11
-1.41135e-09
-7.52864e-11
-1.33749e-09
-7.38631e-11
-1.26634e-09
-7.11479e-11
-1.19894e-09
-6.73986e-11
-1.13607e-09
-6.28685e-11
-1.07828e-09
-5.77959e-11
-1.02588e-09
-5.23969e-11
-9.79021e-10
-4.68602e-11
-9.37676e-10
-4.13453e-11
-9.01695e-10
-3.59811e-11
-8.70827e-10
-3.08679e-11
-8.44748e-10
-2.60792e-11
-8.23083e-10
-2.16645e-11
-8.0543e-10
-1.76534e-11
-7.91372e-10
-1.4058e-11
-7.80494e-10
-1.08775e-11
-7.72394e-10
-8.1002e-12
-7.66687e-10
-5.70718e-12
-7.63013e-10
-3.67404e-12
-7.61037e-10
-1.97578e-12
-7.60456e-10
-5.81018e-13
-7.6102e-10
5.64131e-13
-7.62453e-10
1.43317e-12
-7.64559e-10
2.10597e-12
-7.67152e-10
2.59282e-12
-7.70073e-10
2.92113e-12
-7.7319e-10
3.11646e-12
-7.76392e-10
3.20283e-12
-7.79595e-10
3.20296e-12
-7.82734e-10
3.13825e-12
-7.85762e-10
3.02867e-12
-7.88655e-10
2.89241e-12
-7.914e-10
2.74528e-12
-7.94e-10
2.59963e-12
-7.96463e-10
2.46297e-12
-7.98799e-10
2.33603e-12
-8.01009e-10
2.21061e-12
-8.03077e-10
2.06729e-12
-8.04949e-10
1.87295e-12
-8.06528e-10
1.57891e-12
-8.07647e-10
1.11865e-12
-8.08074e-10
4.2724e-13
-8.0743e-10
-6.44307e-13
-8.05253e-10
-2.17716e-12
-8.00924e-10
-4.32886e-12
-7.93606e-10
-7.31839e-12
-7.82151e-10
-1.14546e-11
-7.64783e-10
-1.73684e-11
-7.37725e-10
-2.70581e-11
-6.96545e-10
-4.11791e-11
-8.8086e-11
-6.08459e-10
6.97554e-11
-1.11029e-10
2.14928e-10
-2.43742e-10
3.8628e-10
-3.00866e-10
5.45062e-10
-2.95781e-10
6.59957e-10
-2.41213e-10
7.06337e-10
-1.48499e-10
6.6536e-10
-2.72833e-11
5.22991e-10
1.1453e-10
2.69143e-10
2.7068e-10
-1.03335e-10
4.36395e-10
-5.99263e-10
6.08217e-10
-1.22187e-09
7.83774e-10
-1.97328e-09
9.61565e-10
-2.85498e-09
1.14076e-09
-3.86803e-09
1.32099e-09
-5.01328e-09
1.50216e-09
-6.29141e-09
1.6843e-09
-7.70289e-09
1.86736e-09
-9.24785e-09
2.05113e-09
-1.09259e-08
2.2351e-09
-1.27357e-08
2.4184e-09
-1.4675e-08
2.59968e-09
-1.67399e-08
2.77717e-09
-1.89249e-08
2.94857e-09
-2.12225e-08
3.11115e-09
-2.36225e-08
3.26173e-09
-2.61125e-08
3.39681e-09
-2.86771e-08
3.51257e-09
-3.12983e-08
3.60504e-09
-3.39552e-08
3.67017e-09
-3.66241e-08
3.70398e-09
-3.92787e-08
3.70266e-09
-4.18908e-08
3.66274e-09
-4.443e-08
3.5812e-09
-4.68645e-08
3.45562e-09
-4.91617e-08
3.28425e-09
-5.12888e-08
3.06618e-09
-5.32132e-08
2.80137e-09
-5.49034e-08
2.49074e-09
-5.63296e-08
2.13615e-09
-5.74644e-08
1.74048e-09
-5.82832e-08
1.30751e-09
-5.87651e-08
8.41918e-10
-5.88933e-08
3.49249e-10
-5.86549e-08
-1.64646e-10
-5.80422e-08
-6.93353e-10
-5.7052e-08
-1.22926e-09
-5.56862e-08
-1.76543e-09
-5.39515e-08
-2.29474e-09
-5.18591e-08
-2.81027e-09
-4.94245e-08
-3.30545e-09
-4.6667e-08
-3.77429e-09
-4.36092e-08
-4.21149e-09
-4.02769e-08
-4.61252e-09
-3.66976e-08
-4.97376e-09
-3.29009e-08
-5.29247e-09
-2.89171e-08
-5.56688e-09
-2.47772e-08
-5.79604e-09
-2.05119e-08
-5.97982e-09
-1.61517e-08
-6.11874e-09
-1.17264e-08
-6.21383e-09
-7.26452e-09
-6.26642e-09
-2.79392e-09
-6.27793e-09
1.65848e-09
-6.24967e-09
6.06624e-09
-6.18262e-09
1.04034e-08
-6.07748e-09
1.46444e-08
-5.93464e-09
1.87633e-08
-5.75393e-09
2.27335e-08
-5.53461e-09
2.65275e-08
-5.27544e-09
3.01165e-08
-4.97485e-09
3.34705e-08
-4.63118e-09
3.65581e-08
-4.24297e-09
3.93471e-08
-3.80928e-09
4.18049e-08
-3.33001e-09
4.38993e-08
-2.80634e-09
4.55995e-08
-2.24101e-09
4.68776e-08
-1.63862e-09
4.77098e-08
-1.00589e-09
4.80786e-08
-3.51531e-10
4.79727e-08
3.12938e-10
4.73911e-08
9.74511e-10
4.63423e-08
1.61899e-09
4.48456e-08
2.23073e-09
4.29322e-08
2.79392e-09
4.06441e-08
3.2934e-09
3.8034e-08
3.71551e-09
3.51635e-08
4.04909e-09
3.21006e-08
4.28629e-09
2.89174e-08
4.42322e-09
2.56866e-08
4.46029e-09
2.24786e-08
4.40221e-09
1.93583e-08
4.25766e-09
1.63825e-08
4.03855e-09
1.3598e-08
3.75915e-09
1.10405e-08
3.43505e-09
8.73383e-09
3.08224e-09
6.69024e-09
2.71632e-09
4.91094e-09
2.35189e-09
3.38712e-09
2.00214e-09
2.10128e-09
1.67849e-09
1.0289e-09
1.39009e-09
1.40494e-10
1.14341e-09
-5.9607e-10
9.41768e-10
-1.21306e-09
7.85023e-10
-1.74046e-09
6.69776e-10
-2.20404e-09
5.89959e-10
-2.62406e-09
5.37715e-10
-3.01467e-09
5.04445e-10
-3.38414e-09
4.81852e-10
-3.73557e-09
4.62761e-10
-4.06807e-09
4.41625e-10
-4.378e-09
4.14708e-10
-4.66023e-09
3.80003e-10
-4.90919e-09
3.36987e-10
-5.11968e-09
2.86288e-10
-5.28751e-09
2.29343e-10
-5.40983e-09
1.68085e-10
-5.4853e-09
1.04688e-10
-5.51416e-09
4.13563e-11
-5.49815e-09
-1.98492e-11
-5.44023e-09
-7.70706e-11
-5.34451e-09
-1.28797e-10
-5.21589e-09
-1.73866e-10
-5.05983e-09
-2.11492e-10
-4.88208e-09
-2.41259e-10
-4.68842e-09
-2.631e-10
-4.48445e-09
-2.7725e-10
-4.27542e-09
-2.84204e-10
-4.06605e-09
-2.8465e-10
-3.8605e-09
-2.79417e-10
-3.66224e-09
-2.69412e-10
-3.47406e-09
-2.55572e-10
-3.29811e-09
-2.38819e-10
-3.13589e-09
-2.20021e-10
-2.98832e-09
-1.99967e-10
-2.85583e-09
-1.79352e-10
-2.73841e-09
-1.58763e-10
-2.63571e-09
-1.38683e-10
-2.54709e-09
-1.19486e-10
-2.47171e-09
-1.01453e-10
-2.4086e-09
-8.47752e-11
-2.35669e-09
-6.95713e-11
-2.31485e-09
-5.58959e-11
-2.28197e-09
-4.37535e-11
-2.25696e-09
-3.31089e-11
-2.23877e-09
-2.38977e-11
-2.22641e-09
-1.60345e-11
-2.21897e-09
-9.42149e-12
-2.2156e-09
-3.95177e-12
-2.21553e-09
5.0369e-13
-2.21811e-09
4.01049e-12
-2.22273e-09
6.71938e-12
-2.22885e-09
8.7183e-12
-2.23604e-09
1.01079e-11
-2.2439e-09
1.09831e-11
-2.25214e-09
1.14337e-11
-2.26048e-09
1.15448e-11
-2.26873e-09
1.13961e-11
-2.27677e-09
1.10618e-11
-2.28448e-09
1.06087e-11
-2.29183e-09
1.00943e-11
-2.2988e-09
9.56233e-12
-2.30537e-09
9.03751e-12
-2.31155e-09
8.51896e-12
-2.31731e-09
7.97185e-12
-2.32257e-09
7.31919e-12
-2.32713e-09
6.43347e-12
-2.33068e-09
5.13001e-12
-2.33272e-09
3.16101e-12
-2.33252e-09
2.29056e-13
-2.32908e-09
-4.08193e-12
-2.32107e-09
-1.0193e-11
-2.30672e-09
-1.86729e-11
-2.28379e-09
-3.02529e-11
-2.24924e-09
-4.6002e-11
-2.19873e-09
-6.7879e-11
-2.12563e-09
-1.00157e-10
-2.01784e-09
-1.48969e-10
-2.47818e-10
-1.85811e-09
5.02615e-11
-1.61291e-10
1.34758e-10
-3.28238e-10
2.01615e-10
-3.67723e-10
2.10226e-10
-3.04392e-10
1.28009e-10
-1.58996e-10
-7.11299e-11
5.06396e-11
-4.07835e-10
3.09422e-10
-8.98266e-10
6.04961e-10
-1.55487e-09
9.27284e-10
-2.38714e-09
1.26866e-09
-3.40224e-09
1.62332e-09
-4.60554e-09
1.98708e-09
-6.00105e-09
2.35707e-09
-7.5917e-09
2.7314e-09
-9.37951e-09
3.1088e-09
-1.13657e-08
3.48835e-09
-1.35506e-08
3.86918e-09
-1.59334e-08
4.25022e-09
-1.85123e-08
4.62996e-09
-2.12835e-08
5.00631e-09
-2.42415e-08
5.37642e-09
-2.73784e-08
5.7366e-09
-3.06836e-08
6.08231e-09
-3.41432e-08
6.40818e-09
-3.77401e-08
6.70804e-09
-4.14534e-08
6.97509e-09
-4.52586e-08
7.20203e-09
-4.91274e-08
7.38129e-09
-5.30275e-08
7.50521e-09
-5.69237e-08
7.56633e-09
-6.07774e-08
7.55763e-09
-6.45475e-08
7.47277e-09
-6.81911e-08
7.30636e-09
-7.16641e-08
7.05419e-09
-7.49219e-08
6.71341e-09
-7.79203e-08
6.28271e-09
-8.06166e-08
5.76246e-09
-8.297e-08
5.15473e-09
-8.49426e-08
4.46339e-09
-8.65005e-08
3.69399e-09
-8.76137e-08
2.85375e-09
-8.82576e-08
1.95139e-09
-8.84125e-08
9.9686e-10
-8.80655e-08
2.23734e-12
-8.72074e-08
-1.02276e-09
-8.58376e-08
-2.06314e-09
-8.39601e-08
-3.1068e-09
-8.15847e-08
-4.14082e-09
-7.87268e-08
-5.15267e-09
-7.54066e-08
-6.13043e-09
-7.1649e-08
-7.06304e-09
-6.74827e-08
-7.94059e-09
-6.29397e-08
-8.75446e-09
-5.80548e-08
-9.49752e-09
-5.28643e-08
-1.01642e-08
-4.74063e-08
-1.07505e-08
-4.17191e-08
-1.12541e-08
-3.58411e-08
-1.1674e-08
-2.98103e-08
-1.20106e-08
-2.36636e-08
-1.22654e-08
-1.74369e-08
-1.24406e-08
-1.11645e-08
-1.25388e-08
-4.87964e-09
-1.25628e-08
1.38577e-09
-1.25151e-08
7.60033e-09
-1.23972e-08
1.3733e-08
-1.22102e-08
1.97529e-08
-1.19545e-08
2.56284e-08
-1.16295e-08
3.13268e-08
-1.1233e-08
3.68136e-08
-1.07622e-08
4.20521e-08
-1.02133e-08
4.70032e-08
-9.58226e-09
5.16253e-08
-8.86507e-09
5.58745e-08
-8.0585e-09
5.97052e-08
-7.16066e-09
6.30705e-08
-6.17173e-09
6.59241e-08
-5.0946e-09
6.82211e-08
-3.93555e-09
6.99199e-08
-2.70475e-09
7.0985e-08
-1.41665e-09
7.1388e-08
-9.00319e-11
7.11114e-08
1.2511e-09
7.01501e-08
2.58031e-09
6.85136e-08
3.86721e-09
6.62276e-08
5.07991e-09
6.33349e-08
6.18615e-09
5.98952e-08
7.15516e-09
5.59847e-08
7.95964e-09
5.16932e-08
8.57776e-09
4.71216e-08
8.9949e-09
4.23769e-08
9.20492e-09
3.75683e-08
9.21087e-09
3.28011e-08
9.0248e-09
2.81727e-08
8.66693e-09
2.37679e-08
8.16401e-09
1.96555e-08
7.54737e-09
1.5887e-08
6.85075e-09
1.2495e-08
6.10837e-09
9.49363e-09
5.35325e-09
6.87995e-09
4.61582e-09
4.63569e-09
3.92275e-09
2.73003e-09
3.29575e-09
1.12293e-09
2.75052e-09
-2.31089e-10
2.29578e-09
-1.3789e-09
1.93284e-09
-2.36502e-09
1.6559e-09
-3.22845e-09
1.45339e-09
-4.00065e-09
1.30991e-09
-4.7045e-09
1.2083e-09
-5.35449e-09
1.13184e-09
-5.95761e-09
1.06588e-09
-6.51497e-09
9.98981e-10
-7.02352e-09
9.23256e-10
-7.47783e-09
8.3432e-10
-7.87165e-09
7.30799e-10
-8.19905e-09
6.13695e-10
-8.45541e-09
4.85698e-10
-8.63788e-09
3.50556e-10
-8.74573e-09
2.12538e-10
-8.78037e-09
7.59983e-11
-8.74527e-09
-5.49536e-11
-8.64565e-09
-1.76684e-10
-8.48825e-09
-2.86197e-10
-8.28089e-09
-3.81232e-10
-8.03209e-09
-4.60287e-10
-7.75074e-09
-5.22615e-10
-7.44567e-09
-5.68163e-10
-7.12543e-09
-5.97496e-10
-6.79794e-09
-6.1169e-10
-6.47038e-09
-6.12212e-10
-6.14899e-09
-6.00807e-10
-5.83903e-09
-5.79378e-10
-5.54472e-09
-5.49882e-10
-5.2693e-09
-5.14239e-10
-5.01505e-09
-4.74265e-10
-4.78341e-09
-4.31611e-10
-4.57503e-09
-3.87729e-10
-4.38993e-09
-3.43858e-10
-4.22761e-09
-3.01011e-10
-4.08711e-09
-2.59987e-10
-3.96718e-09
-2.21383e-10
-3.86634e-09
-1.85615e-10
-3.78297e-09
-1.52941e-10
-3.71537e-09
-1.2349e-10
-3.66185e-09
-9.72789e-11
-3.62071e-09
-7.42442e-11
-3.59035e-09
-5.42569e-11
-3.56924e-09
-3.7143e-11
-3.55597e-09
-2.26983e-11
-3.54922e-09
-1.06999e-11
-3.5478e-09
-9.12771e-13
-3.55068e-09
6.88383e-12
-3.55689e-09
1.29299e-11
-3.56561e-09
1.74427e-11
-3.57614e-09
2.06333e-11
-3.58786e-09
2.27034e-11
-3.60027e-09
2.3844e-11
-3.61296e-09
2.42357e-11
-3.62561e-09
2.40478e-11
-3.63799e-09
2.34367e-11
-3.64992e-09
2.25427e-11
-3.66131e-09
2.14846e-11
-3.6721e-09
2.03512e-11
-3.68225e-09
1.91901e-11
-3.69173e-09
1.79933e-11
-3.70043e-09
1.66806e-11
-3.7082e-09
1.5082e-11
-3.71468e-09
1.29216e-11
-3.71936e-09
9.80352e-12
-3.7214e-09
5.20293e-12
-3.71964e-09
-1.53547e-12
-3.7125e-09
-1.12196e-11
-3.6979e-09
-2.47881e-11
-3.67319e-09
-4.3386e-11
-3.63498e-09
-6.84606e-11
-3.57894e-09
-1.0204e-10
-3.49936e-09
-1.47462e-10
-3.38865e-09
-2.10865e-10
-3.23468e-09
-3.02941e-10
-4.43522e-10
-3.03898e-09
1.36117e-12
-1.62652e-10
-4.47646e-11
-2.82112e-10
-1.79819e-10
-2.32669e-10
-4.36994e-10
-4.72174e-11
-8.4298e-10
2.46991e-10
-1.41935e-09
6.27013e-10
-2.18357e-09
1.07363e-09
-3.14968e-09
1.57108e-09
-4.32908e-09
2.10669e-09
-5.73098e-09
2.67056e-09
-7.36278e-09
3.25512e-09
-9.2304e-09
3.8547e-09
-1.13384e-08
4.46508e-09
-1.36901e-08
5.08304e-09
-1.62872e-08
5.70597e-09
-1.91303e-08
6.33142e-09
-2.22178e-08
6.95676e-09
-2.55465e-08
7.57884e-09
-2.91102e-08
8.19372e-09
-3.29003e-08
8.79643e-09
-3.69048e-08
9.38086e-09
-4.11078e-08
9.93966e-09
-4.54898e-08
1.04643e-08
-5.00267e-08
1.09451e-08
-5.46902e-08
1.13715e-08
-5.94474e-08
1.17323e-08
-6.42612e-08
1.20159e-08
-6.90906e-08
1.22107e-08
-7.38909e-08
1.23054e-08
-7.86143e-08
1.22898e-08
-8.32112e-08
1.21545e-08
-8.76302e-08
1.18918e-08
-9.18196e-08
1.14958e-08
-9.57281e-08
1.09627e-08
-9.93059e-08
1.02912e-08
-1.02505e-07
9.48228e-09
-1.05283e-07
8.53955e-09
-1.07597e-07
7.46914e-09
-1.09413e-07
6.27963e-09
-1.10701e-07
4.98188e-09
-1.11436e-07
3.58887e-09
-1.116e-07
2.11537e-09
-1.11181e-07
5.77751e-10
-1.10173e-07
-1.00633e-09
-1.08576e-07
-2.61887e-09
-1.06399e-07
-4.24082e-09
-1.03652e-07
-5.85352e-09
-1.00354e-07
-7.4387e-09
-9.6528e-08
-8.97882e-09
-9.2201e-08
-1.04574e-08
-8.74045e-08
-1.18596e-08
-8.21732e-08
-1.31719e-08
-7.65444e-08
-1.43833e-08
-7.05574e-08
-1.54845e-08
-6.4253e-08
-1.64686e-08
-5.76723e-08
-1.73312e-08
-5.08565e-08
-1.80699e-08
-4.38462e-08
-1.86842e-08
-3.66811e-08
-1.91758e-08
-2.9399e-08
-1.95475e-08
-2.20365e-08
-1.98031e-08
-1.46281e-08
-1.99472e-08
-7.20686e-09
-1.99841e-08
1.95754e-10
-1.99177e-08
7.54931e-09
-1.97507e-08
1.48237e-08
-1.94845e-08
2.19883e-08
-1.91191e-08
2.90117e-08
-1.86529e-08
3.58609e-08
-1.80822e-08
4.25005e-08
-1.74018e-08
4.88922e-08
-1.6605e-08
5.49942e-08
-1.56842e-08
6.0761e-08
-1.46318e-08
6.61433e-08
-1.34409e-08
7.10887e-08
-1.2106e-08
7.55417e-08
-1.06248e-08
7.94453e-08
-8.99817e-09
8.27419e-08
-7.23214e-09
8.53754e-08
-5.33827e-09
8.72934e-08
-3.33458e-09
8.84494e-08
-1.24607e-09
8.88058e-08
8.94699e-10
8.83373e-08
3.04882e-09
8.70336e-08
5.17084e-09
8.49027e-08
7.21087e-09
8.19725e-08
9.11638e-09
7.82929e-08
1.08348e-08
7.39361e-08
1.23164e-08
6.89959e-08
1.3518e-08
6.35845e-08
1.44062e-08
5.78293e-08
1.49601e-08
5.18666e-08
1.51736e-08
4.58352e-08
1.50562e-08
3.98697e-08
1.46325e-08
3.40932e-08
1.39405e-08
2.86121e-08
1.30285e-08
2.35112e-08
1.19517e-08
1.88511e-08
1.07685e-08
1.46674e-08
9.53695e-09
1.09713e-08
8.31193e-09
7.75171e-09
7.14229e-09
4.97893e-09