/*--------------------------------*- C++ -*----------------------------------*\
  =========                 |
  \\      /  F ield         | OpenFOAM: The Open Source CFD Toolbox
   \\    /   O peration     | Website:  https://openfoam.org
    \\  /    A nd           | Version:  8
     \\/     M anipulation  |
\*---------------------------------------------------------------------------*/
FoamFile
{
    version     2.0;
    format      ascii;
    class       volVectorField;
    location    "0.92";
    object      U;
}
// * * * * * * * * * * * * * * * * * * * * * * * * * * * * * * * * * * * * * //

dimensions      [0 1 -1 0 0 0 0];

internalField   nonuniform List<vector> 
12225
(
(-6.90955e-06 9.38249e-07 0)
(-3.25626e-06 -5.23865e-07 0)
(2.66865e-05 -1.33093e-06 0)
(7.50449e-05 -2.03628e-06 0)
(0.000138264 -2.63377e-06 0)
(0.000213365 -3.19679e-06 0)
(0.00029861 -3.74985e-06 0)
(0.000392764 -4.31857e-06 0)
(0.000494997 -4.92852e-06 0)
(0.000604832 -5.61977e-06 0)
(0.000722214 -6.4597e-06 0)
(0.000847596 -7.56336e-06 0)
(0.000981986 -9.13469e-06 0)
(0.00112635 -1.14843e-05 0)
(0.00127881 -1.42716e-05 0)
(0.00142902 -1.26e-05 0)
(0.00149699 -1.33159e-05 0)
(-5.25459e-06 0.00101269 0)
(-1.41503e-05 2.4127e-06 0)
(5.096e-06 -8.13414e-06 0)
(9.57134e-05 -1.85203e-05 0)
(0.000238948 -2.7444e-05 0)
(0.000424871 -3.53194e-05 0)
(0.00064504 -4.26044e-05 0)
(0.00089406 -4.95943e-05 0)
(0.00116781 -5.6482e-05 0)
(0.00146307 -6.34287e-05 0)
(0.00177722 -7.06242e-05 0)
(0.00210801 -7.83089e-05 0)
(0.00245309 -8.67167e-05 0)
(0.00280849 -9.57559e-05 0)
(0.00316345 -0.000103616 0)
(0.00348593 -0.000100244 0)
(0.00367673 -3.59807e-05 0)
(0.00345407 0.000298843 0)
(0.00055348 0.00254477 0)
(-1.64118e-05 2.85071e-06 0)
(2.71087e-05 -2.59472e-05 0)
(0.000181391 -5.58683e-05 0)
(0.000420268 -8.19015e-05 0)
(0.000728168 -0.000105043 0)
(0.00109154 -0.000126366 0)
(0.00150107 -0.000146614 0)
(0.00194921 -0.000166208 0)
(0.00242946 -0.000185407 0)
(0.00293562 -0.000204381 0)
(0.00346095 -0.000223099 0)
(0.0039964 -0.000240794 0)
(0.00452629 -0.000254229 0)
(0.00501684 -0.000252199 0)
(0.0053884 -0.000196484 0)
(0.00543745 4.63916e-05 0)
(0.00473513 0.000941243 0)
(0.00130797 0.00436901 0)
(-1.49093e-05 1.38713e-07 0)
(6.09543e-05 -5.71332e-05 0)
(0.000281809 -0.000117582 0)
(0.000616315 -0.000170762 0)
(0.00104403 -0.000218248 0)
(0.0015467 -0.000261855 0)
(0.00211086 -0.000302874 0)
(0.00272501 -0.000341907 0)
(0.0033784 -0.000379101 0)
(0.00405975 -0.000414132 0)
(0.00475547 -0.000445717 0)
(0.00544625 -0.000470032 0)
(0.00609952 -0.000476318 0)
(0.00665251 -0.000434835 0)
(0.00697684 -0.000262033 0)
(0.00679773 0.000280297 0)
(0.00565872 0.00186874 0)
(0.00219369 0.00630637 0)
(-1.06858e-05 -8.18974e-06 0)
(0.000104481 -0.000104728 0)
(0.000394253 -0.000206741 0)
(0.000823281 -0.000297379 0)
(0.00136691 -0.000378577 0)
(0.00200263 -0.000452884 0)
(0.00271267 -0.000522076 0)
(0.00348103 -0.000586727 0)
(0.00429179 -0.000646415 0)
(0.00512717 -0.00069947 0)
(0.00596476 -0.000741796 0)
(0.00677235 -0.000763639 0)
(0.00749805 -0.000741565 0)
(0.00805063 -0.000618944 0)
(0.00826558 -0.000257645 0)
(0.00784666 0.000676756 0)
(0.00640365 0.00296951 0)
(0.0031593 0.00817471 0)
(-4.61292e-06 -2.4463e-05 0)
(0.000155203 -0.000172033 0)
(0.000515128 -0.000326748 0)
(0.00103608 -0.000465323 0)
(0.00168967 -0.00058975 0)
(0.00244954 -0.000703168 0)
(0.00329356 -0.000807612 0)
(0.00420077 -0.00090322 0)
(0.00514932 -0.000988282 0)
(0.00611383 -0.00105858 0)
(0.00706171 -0.0011052 0)
(0.00794689 -0.00110927 0)
(0.00869888 -0.00102997 0)
(0.00920447 -0.000778722 0)
(0.00928297 -0.000164035 0)
(0.0086614 0.00121591 0)
(0.00706421 0.00415491 0)
(0.00416445 0.00990171 0)
(2.56258e-06 -5.08245e-05 0)
(0.000210317 -0.000262426 0)
(0.000639955 -0.000481102 0)
(0.00124831 -0.000678104 0)
(0.00200348 -0.000855221 0)
(0.0028757 -0.00101592 0)
(0.00383847 -0.0011621 0)
(0.00486565 -0.00129285 0)
(0.00592892 -0.00140421 0)
(0.00699474 -0.00148797 0)
(0.00802005 -0.00152824 0)
(0.00894571 -0.00149407 0)
(0.00968649 -0.00132423 0)
(0.0101175 -0.000897754 0)
(0.0100629 1.98526e-05 0)
(0.00930314 0.00186136 0)
(0.00768665 0.00535823 0)
(0.00518215 0.0114619 0)
(1.0191e-05 -8.91683e-05 0)
(0.000266742 -0.000379041 0)
(0.000763403 -0.000672936 0)
(0.00145223 -0.000938582 0)
(0.00229785 -0.00117745 0)
(0.00326745 -0.00139301 0)
(0.00433038 -0.00158644 0)
(0.00545527 -0.00175501 0)
(0.00660729 -0.0018914 0)
(0.00774484 -0.00198181 0)
(0.00881528 -0.00200144 0)
(0.00974902 -0.00190525 0)
(0.0104521 -0.0016109 0)
(0.0107997 -0.000969304 0)
(0.0106383 0.000280914 0)
(0.00981518 0.00256889 0)
(0.00828738 0.00652407 0)
(0.00619117 0.0128386 0)
(1.77064e-05 -0.000140994 0)
(0.000321187 -0.00052444 0)
(0.000879381 -0.000904597 0)
(0.00163885 -0.0012485 0)
(0.00256067 -0.00155741 0)
(0.00360941 -0.0018344 0)
(0.00475058 -0.0020793 0)
(0.00594791 -0.00228661 0)
(0.00716055 -0.00244446 0)
(0.00833979 -0.00253209 0)
(0.0094254 -0.00251431 0)
(0.0103414 -0.00233139 0)
(0.0109923 -0.00188179 0)
(0.0112638 -0.000996256 0)
(0.0110359 0.00059542 0)
(0.0102228 0.00329145 0)
(0.00886307 0.00760453 0)
(0.00717011 0.0140162 0)
(2.46063e-05 -0.000207223 0)
(0.00037023 -0.000700205 0)
(0.000981188 -0.00117718 0)
(0.00179813 -0.00160798 0)
(0.00277852 -0.00199403 0)
(0.00388474 -0.00233768 0)
(0.00507907 -0.00263665 0)
(0.0063211 -0.00288176 0)
(0.00756495 -0.00305551 0)
(0.0087566 -0.00312906 0)
(0.00983118 -0.00305632 0)
(0.0107111 -0.00276375 0)
(0.0113063 -0.00213491 0)
(0.011521 -0.000990346 0)
(0.0112731 0.000932237 0)
(0.0105346 0.00398225 0)
(0.00939695 0.00855793 0)
(0.00809439 0.0149786 0)
(3.04418e-05 -0.00028808 0)
(0.000410416 -0.000906431 0)
(0.00106172 -0.00148994 0)
(0.00191923 -0.00201492 0)
(0.00293694 -0.00248363 0)
(0.00407563 -0.00289747 0)
(0.00529521 -0.00325137 0)
(0.00655225 -0.00353161 0)
(0.00779754 -0.00371421 0)
(0.0089741 -0.00376178 0)
(0.010016 -0.00361774 0)
(0.0108489 -0.00319718 0)
(0.0113939 -0.00237458 0)
(0.0115781 -0.000970512 0)
(0.0113561 0.00125603 0)
(0.0107441 0.00459686 0)
(0.00986221 0.00934776 0)
(0.00893415 0.0157082 0)
(3.45568e-05 -0.000375192 0)
(0.000436166 -0.00112165 0)
(0.00110951 -0.00181051 0)
(0.00198516 -0.00242685 0)
(0.00301429 -0.00297463 0)
(0.00415688 -0.0034543 0)
(0.00537179 -0.00385777 0)
(0.00661424 -0.00416657 0)
(0.00783387 -0.0043504 0)
(0.00897363 -0.00436419 0)
(0.00997002 -0.00414304 0)
(0.0107555 -0.00359485 0)
(0.0112649 -0.00259156 0)
(0.0114472 -0.000962039 0)
(0.0112859 0.0015072 0)
(0.010825 0.00505391 0)
(0.0101937 0.00989465 0)
(0.0095933 0.0161494 0)
(3.77136e-05 -0.00047119 0)
(0.000450333 -0.00135435 0)
(0.00113002 -0.00215246 0)
(0.00200476 -0.00286195 0)
(0.00302341 -0.00348922 0)
(0.00414593 -0.00403392 0)
(0.00533122 -0.00448468 0)
(0.00653463 -0.00481808 0)
(0.00770653 -0.00499758 0)
(0.00879212 -0.00497112 0)
(0.00973294 -0.00466726 0)
(0.0104709 -0.00398993 0)
(0.0109557 -0.00281331 0)
(0.0111571 -0.000980051 0)
(0.0110818 0.00169227 0)
(0.010791 0.00539011 0)
(0.0104122 0.0102645 0)
(0.0101208 0.0163772 0)
(3.97793e-05 -0.000589977 0)
(0.00044906 -0.00163956 0)
(0.00111243 -0.0025658 0)
(0.00195793 -0.00338237 0)
(0.00293307 -0.00409958 0)
(0.00399901 -0.00471629 0)
(0.00511641 -0.00521737 0)
(0.00624288 -0.00557378 0)
(0.00733218 -0.00574234 0)
(0.00833496 -0.00566447 0)
(0.00920144 -0.00526399 0)
(0.00988635 -0.00444458 0)
(0.0103568 -0.00308849 0)
(0.0106029 -0.00105918 0)
(0.0106497 0.00178883 0)
(0.0105675 0.00558977 0)
(0.0104733 0.0104363 0)
(0.0105131 0.0163454 0)
(3.94471e-05 -0.000730244 0)
(0.000421826 -0.00197429 0)
(0.00103257 -0.00304483 0)
(0.00180422 -0.00397906 0)
(0.00268576 -0.0047933 0)
(0.00364164 -0.00548597 0)
(0.00463695 -0.00603806 0)
(0.00563467 -0.00641482 0)
(0.0065955 -0.00656695 0)
(0.00747946 -0.00643092 0)
(0.00824909 -0.00592896 0)
(0.00887465 -0.00496943 0)
(0.00934102 -0.00344878 0)
(0.00965556 -0.00125707 0)
(0.00985538 0.00171147 0)
(0.0100109 0.00554218 0)
(0.0102222 0.0102795 0)
(0.0106048 0.0159087 0)
(3.50233e-05 -0.000883348 0)
(0.000355458 -0.00233778 0)
(0.000860364 -0.00355956 0)
(0.00149328 -0.00461366 0)
(0.00221017 -0.00552494 0)
(0.00298216 -0.00629221 0)
(0.00378235 -0.00689323 0)
(0.00458302 -0.00728852 0)
(0.00535601 -0.00742435 0)
(0.00607454 -0.00723512 0)
(0.00671645 -0.00664566 0)
(0.00726855 -0.00557408 0)
(0.00773169 -0.00393598 0)
(0.00812551 -0.00165085 0)
(0.00849152 0.00134886 0)
(0.00889279 0.00510672 0)
(0.00940882 0.00963085 0)
(0.0101267 0.0148859 0)
(2.4699e-05 -0.00102669 0)
(0.000236104 -0.00267658 0)
(0.00056447 -0.0040352 0)
(0.000972779 -0.00519486 0)
(0.00143213 -0.0061905 0)
(0.00192513 -0.00702275 0)
(0.002437 -0.00766781 0)
(0.00295351 -0.00808375 0)
(0.00346153 -0.00821549 0)
(0.00395056 -0.00799917 0)
(0.0044152 -0.00736641 0)
(0.00485801 -0.00624886 0)
(0.00529236 -0.00458326 0)
(0.00574449 -0.00231726 0)
(0.00625384 0.000584187 0)
(0.00687112 0.00413265 0)
(0.00765452 0.00831186 0)
(0.00866589 0.0130752 0)
(6.97899e-06 -0.001115 0)
(5.46401e-05 -0.00288452 0)
(0.000125405 -0.0043248 0)
(0.000210644 -0.00554632 0)
(0.000305779 -0.00659246 0)
(0.000410067 -0.00746687 0)
(0.00052451 -0.00814687 0)
(0.000651562 -0.00859163 0)
(0.000795599 -0.00874869 0)
(0.000963813 -0.00855975 0)
(0.00116737 -0.00796618 0)
(0.0014226 -0.00691418 0)
(0.00175187 -0.0053597 0)
(0.00218371 -0.00327294 0)
(0.00275188 -0.000642151 0)
(0.00349322 0.00252366 0)
(0.00444635 0.00619428 0)
(0.00565168 0.0103198 0)
(-1.89183e-05 -0.00107309 0)
(-0.000180101 -0.00278576 0)
(-0.000433384 -0.00418426 0)
(-0.000752826 -0.00537449 0)
(-0.00111295 -0.00640039 0)
(-0.00149517 -0.0072684 0)
(-0.0018815 -0.00796008 0)
(-0.00225228 -0.00844019 0)
(-0.0025857 -0.00866342 0)
(-0.00285769 -0.00858049 0)
(-0.0030421 -0.00814374 0)
(-0.00311093 -0.00731212 0)
(-0.00303491 -0.00605537 0)
(-0.00278445 -0.00435716 0)
(-0.00233099 -0.0022171 0)
(-0.0016482 0.000348603 0)
(-0.000712861 0.00330728 0)
(0.000497947 0.00661199 0)
(-3.64878e-05 -0.000882143 0)
(-0.000354682 -0.00232964 0)
(-0.000856257 -0.00353784 0)
(-0.00149095 -0.00458126 0)
(-0.00221337 -0.00549294 0)
(-0.00299301 -0.00627932 0)
(-0.00380139 -0.00692729 0)
(-0.00460807 -0.00740962 0)
(-0.00538023 -0.00769031 0)
(-0.006083 -0.00772976 0)
(-0.00668037 -0.00748965 0)
(-0.00713622 -0.00693722 0)
(-0.00741572 -0.00604877 0)
(-0.00748672 -0.00481216 0)
(-0.00732124 -0.00322816 0)
(-0.00689662 -0.00131066 0)
(-0.00619474 0.000914082 0)
(-0.00520063 0.00340883 0)
(-4.32765e-05 -0.000668611 0)
(-0.000433957 -0.00182216 0)
(-0.00105674 -0.00281568 0)
(-0.00185185 -0.00368684 0)
(-0.00276684 -0.00445641 0)
(-0.00376697 -0.00513024 0)
(-0.00481961 -0.00569994 0)
(-0.00589009 -0.00614569 0)
(-0.00694119 -0.00644002 0)
(-0.00793364 -0.00655183 0)
(-0.00882712 -0.00645041 0)
(-0.00958169 -0.00610902 0)
(-0.0101594 -0.00550784 0)
(-0.0105261 -0.00463605 0)
(-0.0106526 -0.00349292 0)
(-0.0105165 -0.002088 0)
(-0.0101008 -0.000440412 0)
(-0.00939277 0.00142197 0)
(-4.20463e-05 -0.000463061 0)
(-0.000443808 -0.00132937 0)
(-0.00109782 -0.00210601 0)
(-0.0019445 -0.00279657 0)
(-0.00293203 -0.00341148 0)
(-0.00402546 -0.00395612 0)
(-0.00519158 -0.0044263 0)
(-0.00639534 -0.00480883 0)
(-0.00759929 -0.00508391 0)
(-0.00876382 -0.00522819 0)
(-0.00984806 -0.00521787 0)
(-0.0108113 -0.00503156 0)
(-0.0116148 -0.00465266 0)
(-0.0122231 -0.00407115 0)
(-0.0126061 -0.00328452 0)
(-0.0127403 -0.00229799 0)
(-0.0126079 -0.00112419 0)
(-0.0121968 0.000217293 0)
(-3.49769e-05 -0.000291918 0)
(-0.000402936 -0.000910026 0)
(-0.0010225 -0.00149015 0)
(-0.00184008 -0.00201119 0)
(-0.0028084 -0.00247696 0)
(-0.00389427 -0.00289271 0)
(-0.00506597 -0.00325747 0)
(-0.00629063 -0.00356331 0)
(-0.00753333 -0.00379681 0)
(-0.00875704 -0.00394125 0)
(-0.00992321 -0.00397892 0)
(-0.010993 -0.00389339 0)
(-0.0119288 -0.00367128 0)
(-0.0126959 -0.00330372 0)
(-0.013264 -0.00278713 0)
(-0.0136085 -0.00212356 0)
(-0.0137109 -0.00132044 0)
(-0.0135584 -0.000390597 0)
(-2.43715e-05 -0.000164309 0)
(-0.000331346 -0.000584438 0)
(-0.000875704 -0.000998084 0)
(-0.00161192 -0.00137122 0)
(-0.00249854 -0.00170467 0)
(-0.0035048 -0.00200363 0)
(-0.00460177 -0.00226921 0)
(-0.00576027 -0.00249723 0)
(-0.00694965 -0.00267915 0)
(-0.00813733 -0.00280357 0)
(-0.00928904 -0.00285801 0)
(-0.0103698 -0.00283045 0)
(-0.011345 -0.00271071 0)
(-0.0121822 -0.00249148 0)
(-0.0128524 -0.00216905 0)
(-0.0133312 -0.0017435 0)
(-0.0135995 -0.00121869 0)
(-0.0136441 -0.000602391 0)
(-1.23689e-05 -7.8724e-05 0)
(-0.000246729 -0.000349849 0)
(-0.000695915 -0.000629166 0)
(-0.00132198 -0.000880531 0)
(-0.00208901 -0.00110425 0)
(-0.0029691 -0.00130522 0)
(-0.00393692 -0.00148551 0)
(-0.00496784 -0.00164331 0)
(-0.0060364 -0.00177352 0)
(-0.00711548 -0.00186885 0)
(-0.00817623 -0.00192098 0)
(-0.00918872 -0.00192169 0)
(-0.0101229 -0.00186373 0)
(-0.0109499 -0.00174161 0)
(-0.0116433 -0.00155206 0)
(-0.0121802 -0.00129431 0)
(-0.0125422 -0.000970008 0)
(-0.0127162 -0.000583381 0)
(-8.5163e-07 -2.81178e-05 0)
(-0.000163117 -0.000192171 0)
(-0.000512276 -0.000367641 0)
(-0.00101627 -0.000524099 0)
(-0.0016442 -0.000662383 0)
(-0.00237151 -0.000786638 0)
(-0.0031771 -0.000899016 0)
(-0.00404131 -0.000998978 0)
(-0.00494415 -0.00108372 0)
(-0.0058643 -0.00114891 0)
(-0.00677882 -0.00118943 0)
(-0.00766351 -0.00120007 0)
(-0.00849365 -0.00117613 0)
(-0.00924501 -0.00111384 0)
(-0.00989487 -0.00101077 0)
(-0.0104231 -0.000865937 0)
(-0.0108127 -0.000679843 0)
(-0.0110521 -0.000454461 0)
(8.5047e-06 -3.36008e-06 0)
(-9.07062e-05 -9.37245e-05 0)
(-0.000344521 -0.000192729 0)
(-0.000725305 -0.000279643 0)
(-0.0012071 -0.000355769 0)
(-0.0017695 -0.000424128 0)
(-0.00239603 -0.000486397 0)
(-0.00307204 -0.000542575 0)
(-0.00378291 -0.000591285 0)
(-0.00451299 -0.000630214 0)
(-0.00524522 -0.000656543 0)
(-0.0059613 -0.000667339 0)
(-0.00664222 -0.000659878 0)
(-0.00726899 -0.000631917 0)
(-0.00782345 -0.000581879 0)
(-0.00828908 -0.000508977 0)
(-0.00865162 -0.000413224 0)
(-0.00890111 -0.000295334 0)
(1.41195e-05 4.7378e-06 0)
(-3.62019e-05 -3.77303e-05 0)
(-0.000204276 -8.44083e-05 0)
(-0.000466745 -0.000124525 0)
(-0.000803294 -0.000159287 0)
(-0.00119852 -0.000190466 0)
(-0.00164079 -0.000219063 0)
(-0.00212023 -0.000245202 0)
(-0.00262718 -0.00026832 0)
(-0.00315123 -0.000287384 0)
(-0.00368088 -0.0003011 0)
(-0.00420355 -0.000308096 0)
(-0.00470598 -0.000307069 0)
(-0.00517467 -0.000296915 0)
(-0.0055965 -0.000276817 0)
(-0.00595926 -0.000246303 0)
(-0.00625211 -0.000205261 0)
(-0.00646747 -0.000153812 0)
(1.43761e-05 4.40809e-06 0)
(-3.38923e-06 -1.03295e-05 0)
(-9.68806e-05 -2.58751e-05 0)
(-0.000248757 -3.88492e-05 0)
(-0.000445618 -4.99324e-05 0)
(-0.000677814 -5.98571e-05 0)
(-0.000938537 -6.90303e-05 0)
(-0.00122228 -7.75356e-05 0)
(-0.00152373 -8.52127e-05 0)
(-0.00183712 -9.17385e-05 0)
(-0.00215598 -9.66961e-05 0)
(-0.00247312 -9.96339e-05 0)
(-0.00278079 -0.000100116 0)
(-0.003071 -9.77618e-05 0)
(-0.00333583 -9.22783e-05 0)
(-0.00356782 -8.34771e-05 0)
(-0.0037601 -7.12704e-05 0)
(-0.00390785 -5.55799e-05 0)
(7.72486e-06 1.57612e-06 0)
(6.32484e-06 -5.09679e-07 0)
(-2.31297e-05 -1.80249e-06 0)
(-7.30233e-05 -2.81229e-06 0)
(-0.000138314 -3.63912e-06 0)
(-0.000215587 -4.37713e-06 0)
(-0.000302609 -5.07216e-06 0)
(-0.000397672 -5.73757e-06 0)
(-0.000499153 -6.36426e-06 0)
(-0.000605273 -6.9286e-06 0)
(-0.000713988 -7.39807e-06 0)
(-0.000822975 -7.73652e-06 0)
(-0.000929684 -7.90752e-06 0)
(-0.00103143 -7.87819e-06 0)
(-0.00112552 -7.62161e-06 0)
(-0.00120935 -7.12217e-06 0)
(-0.00128045 -6.34505e-06 0)
(-0.00133706 -5.26155e-06 0)
(1.1171e-05 -2.60311e-05 6.61579e-24)
(7.58268e-05 -5.91101e-05 -8.7386e-24)
(0.000178068 -7.7189e-05 0)
(0.000300033 -8.35789e-05 0)
(0.000420479 -8.20568e-05 0)
(0.00052455 -7.52652e-05 7.38144e-24)
(0.000602121 -6.51842e-05 0)
(0.00064619 -5.33157e-05 0)
(0.000652057 -4.07295e-05 0)
(0.000616815 -2.81119e-05 0)
(0.000538857 -1.58742e-05 -1.22966e-24)
(0.000417403 -4.21204e-06 0)
(0.000252181 6.83736e-06 0)
(4.31576e-05 1.73438e-05 0)
(-0.000209661 2.7446e-05 0)
(-0.000506353 3.73224e-05 8.23345e-24)
(-0.000847147 4.7167e-05 0)
(-0.00123245 5.7169e-05 0)
(-0.0016628 6.74972e-05 0)
(-0.00213884 7.82892e-05 0)
(-0.00266121 8.96432e-05 0)
(-0.0032304 0.000101612 0)
(-0.00384668 0.000114202 0)
(-0.00450992 0.000127365 2.7096e-23)
(-0.00521947 0.000141008 -2.9481e-23)
(-0.00597398 0.000154985 3.17877e-23)
(-0.00677134 0.000169104 3.39795e-23)
(-0.00760849 0.000183126 0)
(-0.00848139 0.000196772 0)
(-0.00938487 0.000209727 -3.94385e-23)
(-0.0103127 0.000221642 -4.07266e-23)
(-0.0112573 0.000232146 0)
(-0.0122103 0.000240853 0)
(-0.0131619 0.000247371 -4.22662e-23)
(-0.0141015 0.000251317 0)
(-0.0150175 0.000252329 0)
(-0.0158976 0.000250083 3.92403e-23)
(-0.0167292 0.000244306 0)
(-0.0174992 0.000234791 3.41118e-23)
(-0.0181946 0.000221413 6.10622e-23)
(-0.0188025 0.000204141 0)
(-0.019311 0.000183045 0)
(-0.0197086 0.0001583 0)
(-0.0199852 0.000130191 0)
(-0.0201322 9.90946e-05 0)
(-0.0201421 6.55848e-05 -9.67342e-24)
(-0.0200098 3.00489e-05 -2.53649e-23)
(-0.019732 -6.85481e-06 -4.1798e-23)
(-0.0193077 -4.4403e-05 0)
(-0.0187379 -8.18926e-05 7.60963e-23)
(-0.0180257 -0.000118636 0)
(-0.0171762 -0.000153974 -1.10823e-22)
(-0.0161965 -0.0001873 -1.27755e-22)
(-0.0150953 -0.000218077 0)
(-0.0138826 -0.000245858 0)
(-0.0125699 -0.000270295 0)
(-0.0111694 -0.000291144 -1.87074e-22)
(-0.00969362 -0.000308264 0)
(-0.00815584 -0.00032161 0)
(-0.00656913 -0.00033122 0)
(-0.0049465 -0.0003372 0)
(-0.00330065 -0.000339696 0)
(-0.00164397 -0.000338842 0)
(1.15518e-05 -0.000334692 0)
(0.00165446 -0.000327318 0)
(0.00327359 -0.000316971 2.2032e-22)
(0.00485776 -0.000303939 0)
(0.00639586 -0.000288381 0)
(0.00787679 -0.000270373 -1.92003e-22)
(0.00928923 -0.000249954 -1.79022e-22)
(0.0106215 -0.000227155 0)
(0.0118617 -0.000202018 1.48686e-22)
(0.0129974 -0.000174622 -1.31724e-22)
(0.0140162 -0.000145108 0)
(0.0149055 -0.000113704 9.53515e-23)
(0.0156534 -8.07404e-05 0)
(0.0162486 -4.66632e-05 0)
(0.0166815 -1.20424e-05 -3.86332e-23)
(0.0169442 2.24072e-05 0)
(0.0170313 5.58796e-05 2.69825e-24)
(0.0169409 8.78318e-05 0)
(0.0166746 0.000117188 2.91261e-23)
(0.016238 0.000143169 4.28992e-23)
(0.0156408 0.000165092 5.50024e-23)
(0.014897 0.000182391 1.30622e-22)
(0.0140246 0.000194678 -1.47509e-22)
(0.0130449 0.000201782 0)
(0.011982 0.000203763 0)
(0.0108618 0.000200911 0)
(0.00971095 0.000193721 -1.78849e-22)
(0.00855546 0.000182852 -1.78787e-22)
(0.00741994 0.000169078 1.76295e-22)
(0.0063264 0.000153218 0)
(0.00529358 0.000136086 -1.65783e-22)
(0.00433637 0.000118427 -1.58635e-22)
(0.00346563 0.00010089 -1.50768e-22)
(0.00268813 8.4003e-05 0)
(0.00200678 6.81828e-05 0)
(0.00142089 5.37498e-05 0)
(0.000926554 4.0954e-05 -1.18457e-22)
(0.000517062 2.99912e-05 0)
(0.000183334 2.10042e-05 0)
(-8.54919e-05 1.40674e-05 9.91465e-23)
(-0.000301358 9.16256e-06 0)
(-0.000476449 6.15462e-06 0)
(-0.000622317 4.79233e-06 8.65216e-23)
(-0.000749092 4.72964e-06 0)
(-0.000864887 5.56612e-06 0)
(-0.00097547 6.89448e-06 -7.96296e-23)
(-0.00108423 8.34802e-06 -7.81291e-23)
(-0.00119243 9.63336e-06 0)
(-0.00129959 1.05459e-05 7.56693e-23)
(-0.00140403 1.09694e-05 0)
(-0.00150332 1.08644e-05 -7.33675e-23)
(-0.00159479 1.02509e-05 0)
(-0.00167583 9.19e-06 -7.07945e-23)
(-0.00174419 7.76819e-06 -6.93464e-23)
(-0.00179811 6.08389e-06 0)
(-0.00183643 4.23811e-06 0)
(-0.00185865 2.33067e-06 0)
(-0.00186482 4.57921e-07 0)
(-0.00185559 -1.32912e-06 0)
(-0.00183208 -2.95459e-06 0)
(-0.0017958 -4.37004e-06 0)
(-0.00174855 -5.54542e-06 -5.5334e-23)
(-0.00169229 -6.46489e-06 5.36397e-23)
(-0.00162909 -7.12582e-06 0)
(-0.00156101 -7.53721e-06 0)
(-0.00149001 -7.71752e-06 0)
(-0.00141791 -7.6922e-06 0)
(-0.00134633 -7.4913e-06 9.33903e-23)
(-0.00127668 -7.14716e-06 0)
(-0.00121009 -6.69242e-06 -8.93986e-23)
(-0.00114746 -6.15835e-06 8.77041e-23)
(-0.00108947 -5.57363e-06 0)
(-0.00103654 -4.96354e-06 0)
(-0.000988917 -4.34945e-06 0)
(-0.000946675 -3.74871e-06 -8.24581e-23)
(-0.000909741 -3.17474e-06 -8.14181e-23)
(-0.00087793 -2.63735e-06 0)
(-0.000850971 -2.14309e-06 -7.95172e-23)
(-0.000828532 -1.69578e-06 -7.8621e-23)
(-0.000810239 -1.29697e-06 7.77408e-23)
(-0.000795698 -9.46439e-07 0)
(-0.000784507 -6.42584e-07 0)
(-0.000776269 -3.8284e-07 7.50809e-23)
(-0.0007706 -1.63952e-07 0)
(-0.000767138 1.78745e-08 0)
(-0.000765542 1.66204e-07 0)
(-0.0007655 2.79196e-07 0)
(-0.00076674 3.585e-07 -7.01657e-23)
(-0.000769004 4.29587e-07 -6.90796e-23)
(-0.000772056 4.80343e-07 0)
(-0.000775708 5.12527e-07 -6.68009e-23)
(-0.000779788 5.30272e-07 0)
(-0.000784151 5.36507e-07 0)
(-0.000788677 5.33725e-07 -6.31335e-23)
(-0.000793266 5.24193e-07 0)
(-0.000797842 5.10002e-07 -6.05437e-23)
(-0.000802351 4.93077e-07 0)
(-0.000806755 4.75172e-07 0)
(-0.000811036 4.57825e-07 -5.64829e-23)
(-0.00081519 4.42286e-07 0)
(-0.000819224 4.29387e-07 -5.36786e-23)
(-0.000823148 4.19393e-07 0)
(-0.00082697 4.11796e-07 0)
(-0.000830685 4.051e-07 0)
(-0.00083426 3.96601e-07 4.7858e-23)
(-0.000837619 3.82054e-07 0)
(-0.000840629 3.54491e-07 -4.48245e-23)
(-0.000843083 3.06364e-07 0)
(-0.000844664 2.54676e-07 0)
(-0.000844931 1.63558e-07 0)
(-0.000843319 1.28183e-08 0)
(-0.000839068 -2.03529e-07 0)
(-0.000831159 -5.08621e-07 0)
(-0.00081806 -9.64313e-07 0)
(-0.000796914 -2.10922e-06 6.31562e-23)
(-0.000769801 -2.09671e-06 0)
(-0.000680879 -1.37486e-05 0)
(1.67278e-05 -0.000146945 -2.21608e-23)
(0.000121108 -0.000333143 2.95936e-23)
(0.000265701 -0.00042576 0)
(0.000419237 -0.000441273 -1.96287e-23)
(0.000547185 -0.000396855 0)
(0.00062377 -0.00030808 -7.92236e-24)
(0.000629892 -0.00018803 1.55981e-23)
(0.000551177 -4.71909e-05 1.35409e-23)
(0.000377005 0.000106413 0)
(9.97495e-05 0.000266913 8.49925e-24)
(-0.00028591 0.000430225 1.32478e-24)
(-0.000783585 0.000593738 0)
(-0.00139572 0.000755978 0)
(-0.00212403 0.000916317 0)
(-0.00296976 0.0010747 0)
(-0.00393392 0.00123142 -8.84026e-24)
(-0.00501738 0.00138692 0)
(-0.00622085 0.0015416 2.12593e-23)
(-0.00754485 0.00169571 0)
(-0.00898946 0.00184924 0)
(-0.0105542 0.00200179 -3.5268e-23)
(-0.0122378 0.0021526 0)
(-0.0140376 0.00230043 4.5025e-23)
(-0.0159499 0.00244363 -2.88199e-23)
(-0.0179689 0.00258015 3.13039e-23)
(-0.020087 0.00270754 -3.3694e-23)
(-0.0222943 0.00282305 -3.59519e-23)
(-0.0245784 0.00292367 0)
(-0.0269247 0.00300623 0)
(-0.0293155 0.00306751 4.14956e-23)
(-0.0317311 0.00310429 -3.56464e-23)
(-0.0341489 0.0031135 0)
(-0.0365444 0.00309235 0)
(-0.038891 0.00303836 4.41704e-23)
(-0.0411605 0.00294955 0)
(-0.0433238 0.00282452 0)
(-0.045351 0.00266251 -4.08621e-23)
(-0.0472121 0.0024635 0)
(-0.048878 0.00222825 3.3672e-23)
(-0.0503204 0.00195836 -6.3495e-23)
(-0.051513 0.00165622 0)
(-0.0524317 0.00132501 0)
(-0.0530554 0.00096866 -6.8847e-23)
(-0.0533664 0.000591692 -4.45681e-23)
(-0.0533504 0.000199072 -1.76969e-23)
(-0.0529976 -0.000203502 -1.42794e-24)
(-0.0523025 -0.000610369 2.65312e-23)
(-0.0512639 -0.00101557 1.19697e-22)
(-0.0498849 -0.00141324 -1.10376e-22)
(-0.0481733 -0.00179775 -8.00702e-23)
(-0.0461404 -0.00216388 0)
(-0.0438017 -0.00250693 1.17261e-22)
(-0.0411757 -0.00282285 -1.18204e-22)
(-0.0382841 -0.0031083 0)
(-0.0351506 -0.00336074 0)
(-0.0318011 -0.00357842 0)
(-0.0282623 -0.00376038 2.01705e-22)
(-0.0245621 -0.00390642 0)
(-0.0207283 -0.00401698 -4.33186e-22)
(-0.0167888 -0.00409301 0)
(-0.0127708 -0.00413588 -4.68811e-22)
(-0.00870084 -0.00414721 0)
(-0.00460473 -0.0041286 4.8762e-22)
(-0.000507544 -0.00408153 0)
(0.00356645 -0.00400726 -4.81947e-22)
(0.00759368 -0.00390703 2.23977e-22)
(0.0115502 -0.00378195 0)
(0.0154122 -0.00363264 4.29078e-22)
(0.0191555 -0.00345934 2.11138e-22)
(0.022755 -0.00326194 1.96329e-22)
(0.0261845 -0.00304017 0)
(0.0294165 -0.00279377 1.46168e-22)
(0.0324223 -0.00252266 1.43496e-22)
(0.0351719 -0.0022272 0)
(0.0376345 -0.00190835 -1.0356e-22)
(0.0397794 -0.00156794 1.54247e-22)
(0.0415764 -0.00120878 0)
(0.0429972 -0.000834825 4.18797e-23)
(0.0440166 -0.000451226 0)
(0.044614 -6.43203e-05 -3.06275e-24)
(0.0447747 0.000318771 0)
(0.0444915 0.000689865 -9.71232e-23)
(0.0437666 0.00104048 -4.66263e-23)
(0.0426116 0.00136214 5.84823e-23)
(0.0410488 0.00164677 1.36101e-22)
(0.0391115 0.00188723 -1.51463e-22)
(0.0368433 0.00207782 0)
(0.0342969 0.00221466 0)
(0.0315329 0.00229606 0)
(0.028617 0.00232265 5.73648e-22)
(0.0256173 0.00229733 1.98587e-22)
(0.0226015 0.00222508 -1.96582e-22)
(0.0196338 0.00211255 0)
(0.016772 0.00196756 -1.64137e-22)
(0.0140656 0.00179851 1.78963e-22)
(0.0115541 0.00161389 1.70712e-22)
(0.00926614 0.00142179 0)
(0.00721926 0.00122966 0)
(0.00542027 0.00104406 0)
(0.00386597 0.000870673 1.35796e-22)
(0.00254421 0.000714136 0)
(0.00143528 0.000577978 -2.31744e-22)
(0.000513617 0.000464424 -3.34966e-22)
(-0.000250079 0.000374218 2.10631e-22)
(-0.000886549 0.000306535 0)
(-0.00142555 0.000259083 9.4933e-23)
(-0.00189375 0.000228428 0)
(-0.00231309 0.000210431 1.84603e-22)
(-0.00269989 0.00020077 -8.87218e-23)
(-0.00306467 0.000195423 -8.73717e-23)
(-0.00341258 0.000191034 0)
(-0.00374433 0.000185109 -2.6052e-22)
(-0.00405743 0.000176061 1.7056e-22)
(-0.00434734 0.00016313 8.50794e-23)
(-0.00460863 0.000146231 0)
(-0.00483585 0.000125785 8.21801e-23)
(-0.00502428 0.000102542 2.40573e-22)
(-0.00517032 7.74363e-05 0)
(-0.00527179 5.14721e-05 1.53339e-22)
(-0.00532803 2.56338e-05 1.49671e-22)
(-0.00533986 8.28036e-07 1.45842e-22)
(-0.00530944 -2.21989e-05 0)
(-0.00524013 -4.28182e-05 0)
(-0.00513621 -6.05773e-05 0)
(-0.00500267 -7.5195e-05 -6.54568e-23)
(-0.0048449 -8.65501e-05 -6.27124e-23)
(-0.00466848 -9.46665e-05 0)
(-0.00447895 -9.96917e-05 -1.19398e-22)
(-0.00428158 -0.000101873 -1.16251e-22)
(-0.00408126 -0.000101529 0)
(-0.00388232 -9.90266e-05 -1.09659e-22)
(-0.00368851 -9.47546e-05 -2.16533e-22)
(-0.00350294 -8.91027e-05 1.05154e-22)
(-0.00332804 -8.24442e-05 1.04965e-22)
(-0.00316565 -7.51228e-05 0)
(-0.00301697 -6.74432e-05 0)
(-0.00288273 -5.96663e-05 0)
(-0.00276315 -5.20066e-05 9.73896e-23)
(-0.0026581 -4.46337e-05 -9.71989e-23)
(-0.00256713 -3.76747e-05 -1.91137e-22)
(-0.00248954 -3.12184e-05 9.41315e-23)
(-0.00242447 -2.53206e-05 -9.37108e-23)
(-0.00237094 -2.00096e-05 -9.21629e-23)
(-0.0023279 -1.52908e-05 0)
(-0.00229427 -1.11527e-05 0)
(-0.00226897 -7.57033e-06 8.94019e-23)
(-0.00225097 -4.50992e-06 0)
(-0.00223927 -1.93166e-06 0)
(-0.00223294 2.06881e-07 -1.72008e-22)
(-0.00223113 1.94389e-06 0)
(-0.00223303 3.3181e-06 -8.3607e-23)
(-0.00223796 4.4073e-06 8.23975e-23)
(-0.00224527 5.22521e-06 0)
(-0.0022544 5.81104e-06 -7.96943e-23)
(-0.00226489 6.20207e-06 0)
(-0.0022763 6.43203e-06 0)
(-0.00228829 6.53195e-06 7.55499e-23)
(-0.00230058 6.53046e-06 -1.48015e-22)
(-0.00231294 6.4539e-06 7.25444e-23)
(-0.0023252 6.32629e-06 0)
(-0.00233725 6.16896e-06 0)
(-0.002349 5.99997e-06 -6.77029e-23)
(-0.00236043 5.83304e-06 0)
(-0.00237154 5.67613e-06 -6.44258e-23)
(-0.00238232 5.52959e-06 0)
(-0.00239276 5.38406e-06 0)
(-0.0024028 5.21827e-06 0)
(-0.00241233 4.99698e-06 -5.76795e-23)
(-0.00242107 4.66919e-06 0)
(-0.00242863 4.16619e-06 5.40939e-23)
(-0.00243435 3.40204e-06 0)
(-0.00243734 2.31254e-06 0)
(-0.00243638 7.39727e-07 -9.69091e-23)
(-0.00242983 -1.46986e-06 9.30235e-23)
(-0.0024156 -4.49678e-06 0)
(-0.00239094 -8.63698e-06 0)
(-0.00235199 -1.44826e-05 0)
(-0.00229252 -2.35088e-05 -2.30698e-22)
(-0.00221455 -3.77632e-05 0)
(-0.00203366 -7.27671e-05 1.37054e-22)
(1.35655e-05 -0.000273072 -3.00783e-24)
(8.46938e-05 -0.000582077 -4.41113e-23)
(0.000157834 -0.000695505 0)
(0.000198851 -0.000652927 4.23541e-23)
(0.000172828 -0.000488999 0)
(5.30537e-05 -0.000233423 0)
(-0.000181098 8.90152e-05 2.9404e-24)
(-0.000545828 0.000458223 -1.35341e-23)
(-0.00105384 0.000858398 -1.43457e-23)
(-0.00171496 0.00127756 -8.46842e-24)
(-0.00253668 0.001707 0)
(-0.00352472 0.00214073 0)
(-0.0046834 0.00257488 3.16913e-24)
(-0.00601603 0.00300715 -2.8328e-25)
(-0.00752506 0.00343636 7.29264e-24)
(-0.00921219 0.00386194 0)
(-0.0110784 0.00428353 2.24373e-23)
(-0.0131239 0.00470062 -2.09489e-23)
(-0.0153477 0.0051123 0)
(-0.0177477 0.00551697 4.77618e-23)
(-0.0203203 0.00591221 3.45632e-23)
(-0.0230597 0.00629467 -6.60698e-23)
(-0.025958 0.00666003 -4.39514e-23)
(-0.0290046 0.00700307 0)
(-0.032186 0.00731769 9.4575e-23)
(-0.0354854 0.00759712 1.04001e-22)
(-0.0388826 0.00783406 0)
(-0.0423541 0.0080209 1.22e-22)
(-0.0458729 0.00815 0)
(-0.0494086 0.00821391 1.37803e-22)
(-0.0529281 0.00820569 7.54032e-23)
(-0.0563953 0.00811915 0)
(-0.0597723 0.0079491 0)
(-0.0630197 0.00769164 0)
(-0.066097 0.00734432 0)
(-0.0689639 0.00690635 0)
(-0.0715806 0.00637871 0)
(-0.0739088 0.00576422 1.47267e-22)
(-0.0759125 0.00506754 -2.05111e-22)
(-0.0775584 0.00429514 0)
(-0.078817 0.00345518 0)
(-0.0796627 0.00255733 0)
(-0.0800749 0.00161251 -1.27677e-23)
(-0.0800378 0.000632759 4.27538e-23)
(-0.0795403 -0.000368913 4.89891e-23)
(-0.0785778 -0.00137935 6.16819e-24)
(-0.0771506 -0.00238504 2.43591e-23)
(-0.0752642 -0.0033728 -7.29154e-23)
(-0.0729293 -0.00433003 1.80258e-23)
(-0.0701613 -0.00524499 -1.21858e-22)
(-0.06698 -0.00610711 0)
(-0.0634091 -0.00690713 -1.91125e-22)
(-0.0594756 -0.00763737 1.95126e-23)
(-0.0552093 -0.00829177 0)
(-0.0506421 -0.00886603 0)
(-0.0458074 -0.00935753 3.23633e-22)
(-0.0407396 -0.00976527 0)
(-0.0354734 -0.0100898 0)
(-0.0300432 -0.0103328 -3.8237e-22)
(-0.0244831 -0.0104971 -8.4631e-22)
(-0.018826 -0.0105862 4.60448e-22)
(-0.0131037 -0.010604 0)
(-0.00734716 -0.0105545 -4.81423e-22)
(-0.00158607 -0.0104413 0)
(0.00415052 -0.0102674 -4.36461e-22)
(0.009835 -0.0100352 -4.63065e-22)
(0.0154385 -0.00974637 8.49705e-22)
(0.0209321 -0.00940169 3.83804e-22)
(0.0262863 -0.00900107 0)
(0.0314699 -0.00854364 -6.98014e-22)
(0.0364498 -0.00802804 0)
(0.0411908 -0.00745275 -8.69117e-22)
(0.0456551 -0.00681656 -4.97008e-22)
(0.0498026 -0.00611897 -4.23063e-22)
(0.053591 -0.00536078 3.47293e-22)
(0.0569765 -0.00454454 -4.20442e-22)
(0.0599147 -0.003675 0)
(0.0623619 -0.00275953 0)
(0.0642764 -0.00180833 4.76667e-23)
(0.0656206 -0.000834581 -2.07331e-23)
(0.0663631 0.000145536 0)