/*--------------------------------*- C++ -*----------------------------------*\
  =========                 |
  \\      /  F ield         | OpenFOAM: The Open Source CFD Toolbox
   \\    /   O peration     | Website:  https://openfoam.org
    \\  /    A nd           | Version:  8
     \\/     M anipulation  |
\*---------------------------------------------------------------------------*/
FoamFile
{
    version     2.0;
    format      ascii;
    class       volScalarField;
    location    "0.52";
    object      p;
}
// * * * * * * * * * * * * * * * * * * * * * * * * * * * * * * * * * * * * * //

dimensions      [0 2 -2 0 0 0 0];

internalField   nonuniform List<scalar> 
12225
(
-0.0121723
-0.0121369
-0.0120935
-0.0120514
-0.0120187
-0.0119998
-0.0119982
-0.0120177
-0.0120621
-0.0121362
-0.0122465
-0.0124029
-0.0126227
-0.0129397
-0.0134203
-0.014199
-0.0156548
-0.0194052
-0.012171
-0.0121392
-0.0120995
-0.012061
-0.0120318
-0.0120163
-0.0120181
-0.012041
-0.0120888
-0.0121665
-0.0122804
-0.0124406
-0.0126639
-0.0129817
-0.013451
-0.0141777
-0.0153712
-0.0178764
-0.0121711
-0.0121425
-0.012107
-0.0120727
-0.0120475
-0.0120358
-0.0120416
-0.0120682
-0.0121198
-0.012201
-0.0123182
-0.0124808
-0.0127045
-0.0130157
-0.0134579
-0.0140984
-0.0149865
-0.0165262
-0.0121732
-0.0121468
-0.0121148
-0.0120842
-0.0120628
-0.0120548
-0.012064
-0.012094
-0.0121486
-0.0122322
-0.0123507
-0.0125125
-0.0127306
-0.0130248
-0.013423
-0.0139575
-0.0145984
-0.0155314
-0.0121773
-0.012152
-0.0121229
-0.0120958
-0.0120778
-0.0120731
-0.0120854
-0.0121181
-0.0121748
-0.0122596
-0.0123774
-0.012535
-0.0127419
-0.0130106
-0.0133543
-0.0137792
-0.0142279
-0.0147726
-0.0121833
-0.0121584
-0.0121316
-0.0121075
-0.0120926
-0.0120908
-0.0121058
-0.0121408
-0.0121989
-0.0122836
-0.0123987
-0.0125492
-0.0127404
-0.0129779
-0.0132629
-0.0135846
-0.0138816
-0.0141704
-0.012191
-0.0121657
-0.0121407
-0.0121193
-0.0121072
-0.0121081
-0.0121253
-0.0121619
-0.0122206
-0.012304
-0.0124148
-0.0125554
-0.0127277
-0.012931
-0.013158
-0.0133883
-0.0135678
-0.0136919
-0.0122002
-0.012174
-0.0121502
-0.012131
-0.0121214
-0.0121246
-0.0121437
-0.0121813
-0.0122397
-0.0123207
-0.0124256
-0.0125547
-0.0127061
-0.0128747
-0.0130477
-0.0132016
-0.0132935
-0.0133163
-0.0122105
-0.0121831
-0.0121599
-0.0121427
-0.0121351
-0.0121402
-0.0121607
-0.0121988
-0.0122563
-0.012334
-0.0124319
-0.0125482
-0.0126785
-0.012814
-0.0129397
-0.0130328
-0.0130625
-0.0130265
-0.0122215
-0.0121927
-0.0121697
-0.012154
-0.0121482
-0.0121549
-0.0121764
-0.0122145
-0.0122705
-0.0123443
-0.0124347
-0.0125381
-0.0126482
-0.0127542
-0.0128408
-0.0128883
-0.0128766
-0.0128092
-0.0122328
-0.0122024
-0.0121794
-0.0121649
-0.0121605
-0.0121684
-0.0121906
-0.0122285
-0.0122825
-0.0123522
-0.0124352
-0.0125266
-0.0126186
-0.0127001
-0.0127565
-0.0127721
-0.0127352
-0.0126544
-0.0122427
-0.0122109
-0.0121878
-0.0121743
-0.012171
-0.0121798
-0.0122023
-0.0122397
-0.012292
-0.012358
-0.0124348
-0.0125167
-0.0125953
-0.0126595
-0.0126963
-0.0126933
-0.0126443
-0.0125612
-0.0122514
-0.0122192
-0.0121959
-0.0121833
-0.012181
-0.0121906
-0.0122134
-0.0122502
-0.0123008
-0.0123636
-0.012435
-0.012509
-0.0125772
-0.0126291
-0.0126533
-0.0126407
-0.0125888
-0.0125092
-0.0122593
-0.0122275
-0.0122043
-0.0121927
-0.0121916
-0.012202
-0.0122251
-0.0122613
-0.0123104
-0.0123702
-0.0124371
-0.0125049
-0.0125655
-0.0126095
-0.0126274
-0.0126129
-0.0125659
-0.0124962
-0.0122646
-0.0122345
-0.0122123
-0.0122021
-0.0122023
-0.0122137
-0.0122371
-0.0122731
-0.012321
-0.0123789
-0.0124431
-0.0125078
-0.0125655
-0.0126081
-0.0126279
-0.0126203
-0.012586
-0.0125325
-0.0122644
-0.0122382
-0.0122187
-0.0122106
-0.0122127
-0.0122253
-0.0122493
-0.0122853
-0.012333
-0.0123906
-0.0124549
-0.0125208
-0.0125817
-0.0126306
-0.0126611
-0.0126694
-0.0126556
-0.0126237
-0.0122548
-0.0122356
-0.0122216
-0.0122172
-0.0122218
-0.012236
-0.0122609
-0.0122974
-0.0123457
-0.0124047
-0.012472
-0.0125433
-0.0126132
-0.0126754
-0.0127242
-0.0127552
-0.0127668
-0.0127599
-0.0122315
-0.0122236
-0.0122188
-0.0122199
-0.0122279
-0.0122439
-0.0122695
-0.0123063
-0.012355
-0.0124156
-0.0124867
-0.0125649
-0.0126458
-0.0127237
-0.0127928
-0.0128477
-0.012884
-0.0128996
-0.0121944
-0.0122016
-0.0122088
-0.0122163
-0.0122268
-0.0122427
-0.0122661
-0.012299
-0.0123432
-0.0123994
-0.0124674
-0.0125453
-0.0126295
-0.0127151
-0.0127963
-0.0128665
-0.012919
-0.0129485
-0.0121677
-0.0121883
-0.0122056
-0.0122178
-0.012229
-0.0122418
-0.0122583
-0.0122805
-0.0123099
-0.0123479
-0.0123949
-0.0124499
-0.0125108
-0.0125741
-0.012635
-0.012688
-0.0127261
-0.0127425
-0.0121617
-0.01219
-0.0122133
-0.0122288
-0.0122409
-0.0122523
-0.0122644
-0.0122788
-0.0122965
-0.0123185
-0.0123451
-0.0123759
-0.0124092
-0.0124424
-0.012472
-0.0124935
-0.0125007
-0.0124873
-0.0121714
-0.0122033
-0.0122299
-0.0122481
-0.0122621
-0.0122738
-0.012284
-0.0122934
-0.0123025
-0.0123116
-0.0123206
-0.0123288
-0.0123349
-0.0123368
-0.0123319
-0.0123168
-0.0122869
-0.0122365
-0.0121908
-0.012223
-0.0122512
-0.0122723
-0.0122892
-0.012303
-0.0123137
-0.0123215
-0.0123262
-0.0123274
-0.0123242
-0.0123158
-0.0123007
-0.012277
-0.0122425
-0.0121947
-0.0121303
-0.0120451
-0.0122135
-0.0122445
-0.0122737
-0.012298
-0.0123187
-0.0123359
-0.0123493
-0.0123583
-0.0123623
-0.0123602
-0.0123507
-0.0123324
-0.0123034
-0.012262
-0.0122059
-0.0121331
-0.0120414
-0.0119278
-0.0122352
-0.0122645
-0.0122949
-0.0123229
-0.012348
-0.0123696
-0.0123869
-0.012399
-0.012405
-0.0124033
-0.0123921
-0.0123695
-0.0123334
-0.0122815
-0.0122119
-0.0121225
-0.0120115
-0.0118773
-0.0122531
-0.0122811
-0.0123136
-0.0123458
-0.0123756
-0.0124019
-0.0124237
-0.0124402
-0.0124498
-0.0124509
-0.0124413
-0.0124185
-0.0123803
-0.0123239
-0.0122473
-0.0121481
-0.0120251
-0.0118771
-0.0122658
-0.0122939
-0.0123295
-0.0123662
-0.0124008
-0.0124318
-0.0124584
-0.0124796
-0.0124938
-0.0124992
-0.0124932
-0.0124732
-0.0124362
-0.0123795
-0.0123005
-0.012197
-0.0120672
-0.0119108
-0.0122732
-0.012303
-0.0123428
-0.0123844
-0.0124238
-0.0124594
-0.0124907
-0.0125168
-0.0125361
-0.0125467
-0.0125457
-0.0125301
-0.0124969
-0.0124427
-0.0123647
-0.0122604
-0.012128
-0.0119668
-0.0122755
-0.012309
-0.012354
-0.0124007
-0.0124446
-0.0124846
-0.0125204
-0.0125514
-0.0125761
-0.0125923
-0.0125972
-0.0125874
-0.0125594
-0.0125097
-0.012435
-0.0123326
-0.0122004
-0.0120374
-0.0122744
-0.0123125
-0.0123621
-0.0124129
-0.0124604
-0.0125039
-0.0125433
-0.0125781
-0.0126072
-0.0126282
-0.0126382
-0.0126335
-0.0126104
-0.0125651
-0.0124941
-0.0123943
-0.0122634
-0.0121004
0.00257191
0.00260202
0.00260717
0.00256799
0.00248337
0.00235536
0.00218616
0.00197826
0.00173423
0.00145643
0.00114691
0.000807088
0.000437994
4.02894e-05
-0.000385633
-0.000839473
-0.00132084
-0.00182904
-0.00236286
-0.00292035
-0.00349864
-0.00409374
-0.00470036
-0.00531182
-0.00591989
-0.00651477
-0.00708512
-0.00761813
-0.00809964
-0.00851445
-0.00884656
-0.00907961
-0.00919731
-0.00918396
-0.00902497
-0.00870745
-0.00822068
-0.0075567
-0.00671066
-0.00568128
-0.00447102
-0.00308636
-0.00153766
0.000161139
0.00199236
0.00393371
0.00596075
0.0080462
0.0101606
0.012273
0.0143516
0.0163641
0.0182783
0.0200627
0.021687
0.023122
0.0243407
0.0253181
0.0260314
0.0264611
0.0265915
0.0264106
0.0259101
0.0250873
0.0239457
0.0224953
0.020753
0.0187431
0.0164972
0.014054
0.0114587
0.00876172
0.00601755
0.00328221
0.000610566
-0.00193876
-0.0043213
-0.00649454
-0.00842432
-0.0100867
-0.0114683
-0.0125667
-0.0133896
-0.0139537
-0.014283
-0.0144069
-0.0143575
-0.0141678
-0.01387
-0.0134933
-0.0130638
-0.0126033
-0.0121296
-0.011657
-0.0111967
-0.0107577
-0.0103469
-0.00996979
-0.00963035
-0.00933094
-0.00907223
-0.00885318
-0.00867118
-0.00852234
-0.00840187
-0.0083045
-0.00822488
-0.00815784
-0.00809862
-0.00804303
-0.00798749
-0.00792909
-0.00786557
-0.00779534
-0.00771738
-0.00763124
-0.00753697
-0.00743502
-0.00732618
-0.00721149
-0.00709217
-0.00696951
-0.00684476
-0.00671932
-0.00659431
-0.00647081
-0.00634974
-0.00623187
-0.00611781
-0.00600799
-0.00590272
-0.00580218
-0.00570641
-0.00561537
-0.00552893
-0.0054469
-0.00536903
-0.00529504
-0.00522464
-0.00515749
-0.00509329
-0.0050317
-0.00497242
-0.00491515
-0.00485959
-0.00480548
-0.00475255
-0.00470057
-0.00464933
-0.00459862
-0.00454826
-0.00449808
-0.00444795
-0.00439771
-0.00434727
-0.0042965
-0.00424533
-0.00419366
-0.00414144
-0.00408858
-0.00403504
-0.00398077
-0.00392571
-0.0038698
-0.003813
-0.0037552
-0.00369628
-0.00363605
-0.00357425
-0.00351049
-0.00344422
-0.00337474
-0.00330137
-0.00322324
-0.00313981
-0.00305062
-0.00295564
-0.00285746
-0.00276066
-0.00263236
0.0025998
0.0026289
0.00263254
0.00259363
0.00251372
0.00239593
0.0022425
0.00205546
0.00183677
0.0015882
0.00131106
0.00100642
0.000674863
0.000316597
-6.84052e-05
-0.000480285
-0.000919133
-0.00138483
-0.00187686
-0.00239408
-0.00293452
-0.00349521
-0.00407193
-0.0046591
-0.0052496
-0.00583467
-0.0064039
-0.00694521
-0.00744499
-0.00788825
-0.00825897
-0.00854041
-0.00871559
-0.00876783
-0.00868133
-0.00844174
-0.0080368
-0.0074569
-0.00669562
-0.00575019
-0.00462186
-0.00331583
-0.00184085
-0.000210159
0.00155822
0.00344345
0.00542051
0.00746181
0.00953762
0.0116166
0.0136666
0.0156547
0.0175486
0.0193162
0.020927
0.0223516
0.0235627
0.0245352
0.0252464
0.0256763
0.0258087
0.0256314
0.0251367
0.0243228
0.0231936
0.0217594
0.0200378
0.0180535
0.015839
0.0134336
0.0108833
0.00823907
0.0055558
0.00289015
0.000298852
-0.00216923
-0.00446139
-0.00654072
-0.00837628
-0.00994685
-0.0112423
-0.0122632
-0.0130202
-0.0135323
-0.0138249
-0.0139277
-0.0138724
-0.0136908
-0.0134128
-0.0130653
-0.0126715
-0.0122507
-0.0118183
-0.0113866
-0.0109651
-0.0105615
-0.0101819
-0.00983147
-0.00951395
-0.00923191
-0.00898644
-0.00877707
-0.00860184
-0.00845759
-0.0083402
-0.00824503
-0.00816721
-0.00810198
-0.00804487
-0.00799183
-0.00793936
-0.00788454
-0.00782506
-0.0077592
-0.00768585
-0.00760442
-0.00751484
-0.00741744
-0.00731292
-0.00720225
-0.00708658
-0.00696716
-0.00684533
-0.00672231
-0.00659932
-0.00647745
-0.00635766
-0.00624073
-0.00612732
-0.00601789
-0.0059128
-0.00581225
-0.00571632
-0.005625
-0.00553819
-0.00545571
-0.00537734
-0.00530282
-0.00523187
-0.00516417
-0.00509941
-0.00503729
-0.00497749
-0.00491972
-0.00486368
-0.00480912
-0.00475578
-0.00470342
-0.00465182
-0.00460078
-0.00455012
-0.00449968
-0.0044493
-0.00439885
-0.0043482
-0.00429727
-0.00424594
-0.00419414
-0.00414179
-0.00408883
-0.0040352
-0.00398085
-0.00392571
-0.00386973
-0.00381285
-0.00375496
-0.00369594
-0.0036356
-0.00357366
-0.00350975
-0.00344338
-0.00337398
-0.00330084
-0.00322335
-0.00314093
-0.00305331
-0.00296064
-0.00286588
-0.00277301
-0.00265066
0.00282459
0.00283722
0.00282416
0.00277309
0.00268682
0.00256885
0.0024213
0.00224585
0.00204398
0.00181688
0.00156527
0.00128942
0.000989133
0.00066376
0.000312334
-6.63256e-05
-0.000473468
-0.000910227
-0.00137742
-0.00187529
-0.00240332
-0.00295989
-0.00354208
-0.00414537
-0.00476346
-0.00538803
-0.00600872
-0.00661302
-0.00718644
-0.00771269
-0.00817403
-0.0085517
-0.00882653
-0.00897955
-0.00899265
-0.00884937
-0.00853552
-0.00803991
-0.00735493
-0.0064771
-0.00540699
-0.00414877
-0.0027114
-0.00110948
0.000638007
0.00250868
0.00447676
0.00651363
0.00858854
0.0106692
0.0127224
0.0147148
0.0166134
0.0183859
0.0200015
0.0214308
0.0226465
0.0236238
0.0243399
0.0247751
0.0249133
0.0247426
0.0242544
0.0234467
0.0223232
0.0208942
0.0191775
0.0171981
0.0149892
0.0125912
0.0100513
0.00742218
0.00476037
0.00212412
-0.000428861
-0.00284423
-0.00507337
-0.00707545
-0.00882194
-0.0102939
-0.011484
-0.0123966
-0.0130466
-0.0134578
-0.0136601
-0.0136868
-0.0135724
-0.0133497
-0.0130484
-0.0126941
-0.0123073
-0.0119044
-0.0114975
-0.0110956
-0.0107056
-0.0103329
-0.00998214
-0.00965732
-0.00936186
-0.00909827
-0.00886789
-0.00867066
-0.00850515
-0.00836873
-0.00825781
-0.0081682
-0.00809543
-0.00803504
-0.00798277
-0.0079347
-0.00788738
-0.00783787
-0.00778381
-0.0077234
-0.00765542
-0.00757921
-0.00749459
-0.00740183
-0.00730158
-0.00719476
-0.0070825
-0.00696607
-0.00684678
-0.0067259
-0.00660467
-0.0064842
-0.00636548
-0.00624934
-0.00613645
-0.00602735
-0.00592239
-0.00582181
-0.00572573
-0.00563415
-0.00554699
-0.00546411
-0.00538529
-0.0053103
-0.00523885
-0.00517065
-0.00510539
-0.00504277
-0.00498249
-0.00492426
-0.00486778
-0.0048128
-0.00475906
-0.00470633
-0.00465439
-0.00460303
-0.00455208
-0.00450137
-0.00445075
-0.00440008
-0.00434924
-0.00429813
-0.00424665
-0.00419471
-0.00414224
-0.00408917
-0.00403544
-0.003981
-0.00392578
-0.00386973
-0.00381277
-0.0037548
-0.0036957
-0.00363527
-0.00357326
-0.00350931
-0.00344298
-0.00337374
-0.00330101
-0.00322424
-0.003143
-0.00305717
-0.00296698
-0.00287561
-0.00278725
-0.00266923
0.0032537
0.00323169
0.00318448
0.00310859
0.00300575
0.00287882
0.00272835
0.00255552
0.00236113
0.00214542
0.00190808
0.0016482
0.00136429
0.00105425
0.000715534
0.000345181
-5.99363e-05
-0.000502905
-0.000986479
-0.00151275
-0.00208277
-0.00269616
-0.00335074
-0.00404212
-0.00476343
-0.00550509
-0.00625475
-0.00699732
-0.00771522
-0.00838875
-0.00899661
-0.00951655
-0.00992611
-0.0102034
-0.010328
-0.0102815
-0.0100485
-0.00961733
-0.0089803
-0.0081342
-0.00707974
-0.00582239
-0.00437411
-0.00275176
-0.000975745
0.000929634
0.0029367
0.00501506
0.00713226
0.00925459
0.0113477
0.0133774
0.01531
0.0171131
0.0187557
0.0202089
0.0214456
0.0224413
0.0231737
0.0236231
0.0237735
0.0236133
0.0231337
0.0223307
0.0212076
0.0197742
0.0180476
0.0160532
0.0138244
0.0114026
0.00883666
0.00618121
0.00349534
0.000840251
-0.00172323
-0.00413731
-0.00634921
-0.00831459
-0.0100022
-0.0113931
-0.0124803
-0.0132705
-0.0137826
-0.014046
-0.0140974
-0.0139778
-0.0137283
-0.0133876
-0.0129894
-0.0125608
-0.0121222
-0.0116875
-0.0112657
-0.0108619
-0.010479
-0.0101189
-0.00978363
-0.00947512
-0.00919563
-0.00894706
-0.00873052
-0.00854595
-0.008392
-0.00826618
-0.00816508
-0.00808467
-0.00802057
-0.00796841
-0.00792399
-0.00788342
-0.00784322
-0.00780044
-0.00775265
-0.00769803
-0.00763531
-0.0075638
-0.00748331
-0.00739415
-0.00729696
-0.00719271
-0.00708258
-0.00696787
-0.00684995
-0.00673015
-0.00660974
-0.00648988
-0.00637159
-0.00625573
-0.006143
-0.00603395
-0.00592897
-0.00582829
-0.00573206
-0.00564029
-0.00555291
-0.00546977
-0.00539068
-0.00531539
-0.00524364
-0.00517513
-0.00510957
-0.00504665
-0.00498607
-0.00492754
-0.00487078
-0.00481552
-0.00476153
-0.00470855
-0.00465637
-0.0046048
-0.00455365
-0.00450275
-0.00445196
-0.00440113
-0.00435015
-0.0042989
-0.0042473
-0.00419525
-0.00414269
-0.00408954
-0.00403574
-0.00398123
-0.00392595
-0.00386984
-0.00381283
-0.00375481
-0.00369567
-0.00363522
-0.00357321
-0.00350933
-0.00344317
-0.00337425
-0.00330206
-0.00322612
-0.00314611
-0.00306198
-0.00297397
-0.00288517
-0.00279935
-0.00268697
0.00383693
0.00376645
0.0036717
0.0035622
0.00343719
0.0032947
0.00313528
0.00295842
0.00276316
0.00254814
0.00231137
0.00205015
0.00176103
0.00143984
0.0010817
0.000681304
0.000233116
-0.00026822
-0.000827439
-0.00144814
-0.00213222
-0.00287935
-0.00368644
-0.00454725
-0.00545212
-0.00638791
-0.00733805
-0.0082829
-0.00920021
-0.0100658
-0.0108542
-0.0115396
-0.0120967
-0.0125015
-0.0127321
-0.0127696
-0.0125985
-0.0122076
-0.0115903
-0.0107443
-0.00967214
-0.00838294
-0.00689117
-0.00521512
-0.00337747
-0.00140486
0.000672704
0.00282266
0.00501061
0.00720111
0.0093585
0.0114475
0.0134341
0.0152854
0.0169709
0.0184619
0.0197319
0.0207571
0.0215158
0.0219887
0.0221591
0.0220154
0.0215487
0.0207536
0.0196325
0.0181941
0.0164551
0.0144402
0.0121831
0.00972598
0.00711905
0.00441904
0.00168765
-0.0010107
-0.00361149
-0.00605289
-0.00827851
-0.0102387
-0.0118964
-0.0132287
-0.0142271
-0.0148975
-0.0152602
-0.0153488
-0.0152067
-0.0148835
-0.0144304
-0.0138961
-0.0133227
-0.0127439
-0.0121835
-0.0116558
-0.0111676
-0.0107204
-0.0103124
-0.00994083
-0.00960345
-0.00929906
-0.00902747
-0.00878903
-0.00858389
-0.00841143
-0.00826987
-0.00815645
-0.00806761
-0.00799915
-0.00794659
-0.00790541
-0.00787132
-0.00784033
-0.00780888
-0.00777394
-0.00773306
-0.00768437
-0.00762664
-0.0075592
-0.00748195
-0.00739525
-0.00729987
-0.00719688
-0.00708756
-0.00697331
-0.00685557
-0.00673577
-0.00661523
-0.00649517
-0.00637663
-0.00626051
-0.00614753
-0.00603824
-0.00593303
-0.00583216
-0.00573575
-0.00564381
-0.00555627
-0.00547298
-0.00539375
-0.00531833
-0.00524644
-0.0051778
-0.0051121
-0.00504903
-0.00498831
-0.00492964
-0.00487274
-0.00481735
-0.00476321
-0.0047101
-0.0046578
-0.0046061
-0.00455483
-0.00450381
-0.00445291
-0.00440198
-0.0043509
-0.00429957
-0.00424789
-0.00419577
-0.00414314
-0.00408993
-0.00403607
-0.00398151
-0.00392619
-0.00387005
-0.00381301
-0.00375498
-0.00369583
-0.00363541
-0.00357349
-0.00350977
-0.00344389
-0.00337543
-0.00330393
-0.00322898
-0.00315029
-0.00306783
-0.00298184
-0.00289503
-0.00281033
-0.00270534
0.00450768
0.00438085
0.00423163
0.00408372
0.00393257
0.00377236
0.00359968
0.00341159
0.00320482
0.0029756
0.00271951
0.00243139
0.00210517
0.00173398
0.00131023
0.000825989
0.000273414
-0.000354648
-0.00106398
-0.00185826
-0.00273839
-0.00370184
-0.0047422
-0.00584894
-0.00700739
-0.00819893
-0.00940148
-0.0105901
-0.0117377
-0.0128159
-0.0137962
-0.0146503
-0.0153512
-0.0158741
-0.016197
-0.0163012
-0.0161722
-0.0157999
-0.0151787
-0.0143084
-0.0131948
-0.0118493
-0.0102878
-0.00853102
-0.00660424
-0.00453678
-0.00236128
-0.000112849
0.00217176
0.00445505
0.00669968
0.00886919
0.0109287
0.0128453
0.0145886
0.0161305
0.0174455
0.0185104
0.0193046
0.0198094
0.0200082
0.0198884
0.0194409
0.0186598
0.0175457
0.0161064
0.0143575
0.0123231
0.010037
0.00754189
0.00488929
0.00213788
-0.000648115
-0.00340116
-0.00605309
-0.00853792
-0.0107949
-0.0127707
-0.0144221
-0.0157194
-0.0166498
-0.0172161
-0.0174372
-0.0173475
-0.0169943
-0.0164347
-0.01573
-0.014941
-0.0141225
-0.0133191
-0.012563
-0.0118736
-0.0112585
-0.0107171
-0.0102433
-0.00982902
-0.00946658
-0.00914997
-0.0088752
-0.00863975
-0.0084418
-0.00827935
-0.00814968
-0.00804923
-0.00797388
-0.00791905
-0.00787985
-0.00785148
-0.00782934
-0.00780924
-0.00778748
-0.00776091
-0.00772703
-0.00768398
-0.00763059
-0.00756629
-0.00749112
-0.00740559
-0.00731064
-0.00720751
-0.00709763
-0.00698254
-0.00686381
-0.00674294
-0.00662135
-0.0065003
-0.00638087
-0.00626398
-0.00615035
-0.00604054
-0.00593492
-0.00583374
-0.0057371
-0.00564501
-0.00555737
-0.00547403
-0.00539478
-0.00531935
-0.00524747
-0.00517884
-0.00511315
-0.00505009
-0.00498937
-0.0049307
-0.00487378
-0.00481837
-0.00476421
-0.00471106
-0.00465872
-0.00460698
-0.00455566
-0.0045046
-0.00445365
-0.00440266
-0.00435154
-0.00430016
-0.00424843
-0.00419626
-0.00414359
-0.00409034
-0.00403645
-0.00398186
-0.00392652
-0.00387035
-0.0038133
-0.00375528
-0.00369617
-0.00363582
-0.00357405
-0.00351058
-0.0034451
-0.00337723
-0.00330657
-0.00323274
-0.00315547
-0.00307472
-0.00299071
-0.00290551
-0.00282122
-0.00272453
0.0051807
0.0049945
0.00478903
0.00460273
0.00442525
0.0042446
0.00405312
0.00384437
0.00361176
0.00334832
0.00304652
0.00269808
0.00229389
0.00182412
0.00127854
0.000647079
-7.94886e-05
-0.000908672
-0.0018454
-0.00289118
-0.00404341
-0.00529495
-0.00663387
-0.0080436
-0.00950328
-0.0109884
-0.0124715
-0.0139231
-0.0153124
-0.0166085
-0.0177807
-0.0187999
-0.0196384
-0.0202715
-0.0206775
-0.0208383
-0.0207403
-0.0203741
-0.0197357
-0.0188273
-0.0176563
-0.0162357
-0.0145835
-0.0127229
-0.0106823
-0.00849377
-0.00619316
-0.00381861
-0.00140976
0.000993278
0.00335095
0.00562514
0.00777986
0.00978183
0.0116007
0.0132092
0.0145828
0.0156995
0.0165397
0.0170858
0.0173218
0.017234
0.0168134
0.0160536
0.014953
0.0135184
0.0117641
0.00971398
0.00740144
0.00486998
0.00217228
-0.000631008
-0.00347315
-0.00628362
-0.00899082
-0.0115249
-0.0138209
-0.0158213
-0.0174781
-0.0187568
-0.0196375
-0.0201184
-0.0202148
-0.0199587
-0.0193981
-0.0185939
-0.0176154
-0.0165348
-0.0154205
-0.0143318
-0.0133137
-0.0123954
-0.0115902
-0.0108987
-0.0103123
-0.009818
-0.0094021
-0.00905255
-0.00876001
-0.0085177
-0.00832053
-0.00816417
-0.00804425
-0.00795587
-0.00789391
-0.00785306
-0.00782785
-0.00781293
-0.0078033
-0.00779443
-0.00778239
-0.00776391
-0.00773641
-0.0076981
-0.00764789
-0.00758538
-0.00751081
-0.00742493
-0.00732888
-0.00722412
-0.00711227
-0.00699506
-0.00687417
-0.00675124
-0.00662774
-0.00650499
-0.00638409
-0.00626598
-0.00615138
-0.00604081
-0.00593463
-0.00583307
-0.0057362
-0.00564399
-0.00555634
-0.00547305
-0.00539389
-0.00531859
-0.00524686
-0.00517838
-0.00511284
-0.00504993
-0.00498935
-0.0049308
-0.00487399
-0.00481867
-0.00476458
-0.00471149
-0.0046592
-0.00460749
-0.00455619
-0.00450514
-0.00445419
-0.00440321
-0.00435207
-0.00430067
-0.00424893
-0.00419675
-0.00414405
-0.00409078
-0.00403687
-0.00398227
-0.00392692
-0.00387075
-0.00381371
-0.00375572
-0.00369667
-0.00363645
-0.00357487
-0.00351173
-0.00344675
-0.00337958
-0.00330988
-0.00323729
-0.00316152
-0.00308248
-0.00300038
-0.00291652
-0.00283221
-0.00274385
0.00575197
0.00550947
0.00525104
0.00502866
0.0048251
0.004621
0.00440349
0.00416177
0.00388521
0.00356304
0.00318413
0.00273679
0.00220882
0.00158777
0.00086151
1.90335e-05
-0.000948547
-0.00204702
-0.00327813
-0.00463887
-0.00612107
-0.00771127
-0.00939099
-0.0111373
-0.0129235
-0.0147201
-0.0164956
-0.0182175
-0.0198528
-0.0213691
-0.0227349
-0.0239204
-0.024898
-0.0256426
-0.0261328
-0.0263507
-0.0262825
-0.0259196
-0.0252594
-0.0243052
-0.0230656
-0.0215549
-0.0197936
-0.0178079
-0.0156289
-0.0132925
-0.0108379
-0.00830691
-0.00574291
-0.0031893
-0.000688548
0.00171888
0.00399541
0.00610692
0.00802305
0.00971712
0.0111658
0.0123486
0.0132474
0.0138458
0.0141287
0.0140826
0.0136974
0.0129663
0.0118865
0.010463
0.00870933
0.00664858
0.00431424
0.00175047
-0.000988631
-0.00384041
-0.00673558
-0.00960068
-0.0123608
-0.0149425
-0.0172768
-0.0193023
-0.0209671
-0.0222326
-0.023073
-0.0234811
-0.0234677
-0.0230611
-0.022307
-0.0212668
-0.020014
-0.0186291
-0.017193
-0.0157798
-0.0144503
-0.0132476
-0.0121954
-0.0112996
-0.0105527
-0.00993835
-0.00943726
-0.0090307
-0.00870284
-0.00844122
-0.00823626
-0.00808018
-0.00796609
-0.00788725
-0.00783709
-0.00780915
-0.00779715
-0.00779504
-0.00779725
-0.00779884
-0.00779557
-0.00778401
-0.00776155
-0.00772646
-0.0076778
-0.00761539
-0.00753973
-0.00745182
-0.00735309
-0.00724523
-0.0071301
-0.00700959
-0.00688555
-0.0067597
-0.00663359
-0.00650858
-0.0063858
-0.00626616
-0.00615037
-0.00603891
-0.00593213
-0.00583019
-0.00573313
-0.00564089
-0.00555332
-0.0054702
-0.00539127
-0.00531625
-0.0052448
-0.00517662
-0.00511138
-0.00504875
-0.00498842
-0.0049301
-0.00487351
-0.00481838
-0.00476445
-0.00471151
-0.00465933
-0.00460772
-0.0045565
-0.00450551
-0.00445461
-0.00440366
-0.00435255
-0.00430117
-0.00424943
-0.00419725
-0.00414455
-0.00409128
-0.00403737
-0.00398276
-0.00392741
-0.00387126
-0.00381424
-0.0037563
-0.00369735
-0.00363728
-0.00357596
-0.00351321
-0.00344878
-0.0033824
-0.00331373
-0.00324243
-0.00316817
-0.0030908
-0.00301046
-0.00292772
-0.00284309
-0.00276237
0.00611042
0.00581902
0.00551474
0.00526031
0.00503082
0.00479901
0.00454622
0.0042568
0.00391568
0.00350798
0.00301887
0.0024334
0.00173676
0.000914729
-4.54126e-05
-0.00115387
-0.00241722
-0.00383743
-0.00541111
-0.00712917
-0.0089768
-0.0109339
-0.0129758
-0.0150741
-0.0171977
-0.0193136
-0.0213877
-0.0233858
-0.0252736
-0.0270179
-0.0285863
-0.0299483
-0.0310756
-0.0319426
-0.0325269
-0.0328101
-0.0327781
-0.0324219
-0.0317401
-0.0307361
-0.0294193
-0.0278061
-0.025919
-0.0237872
-0.0214453
-0.0189329
-0.0162934
-0.0135731
-0.0108196
-0.00808066
-0.00540245
-0.00282861
-0.00039907
0.00185067
0.00388981
0.00569218
0.00723572
0.00850168
0.00947374
0.0101372
0.0104783
0.0104842
0.0101438
0.00945005
0.00839909
0.00699428
0.0052482
0.00318335
0.000833335
-0.00175683
-0.0045315
-0.0074259
-0.0103681
-0.0132818
-0.0160887
-0.0187121
-0.0210793
-0.0231252
-0.0247943
-0.0260439
-0.0268455
-0.0271858
-0.0270715
-0.026527
-0.0255944
-0.0243334
-0.0228185
-0.0211348
-0.0193724
-0.0176183
-0.0159493
-0.0144243
-0.0130812
-0.0119357
-0.0109846
-0.0102116
-0.00959311
-0.00910402
-0.0087214
-0.00842612
-0.00820292
-0.00803954
-0.00792572
-0.0078523
-0.00781077
-0.00779318
-0.00779223
-0.00780096
-0.00781314
-0.0078233
-0.00782689
-0.00782029
-0.00780089
-0.00776701
-0.00771794
-0.00765375
-0.00757521
-0.00748364
-0.00738076
-0.00726853
-0.00714901
-0.00702429
-0.00689634
-0.00676699
-0.00663783
-0.00651025
-0.00638537
-0.00626408
-0.00614705
-0.00603473
-0.00592739
-0.00582517
-0.00572804
-0.00563591
-0.00554857
-0.00546577
-0.00538723
-0.00531262
-0.00524161
-0.00517386
-0.00510903
-0.0050468
-0.00498684
-0.00492886
-0.00487257
-0.0048177
-0.00476402
-0.00471128
-0.00465927
-0.00460781
-0.00455671
-0.00450582
-0.004455
-0.00440411
-0.00435304
-0.0043017
-0.00424998
-0.00419782
-0.00414513
-0.00409186
-0.00403796
-0.00398336
-0.00392802
-0.00387189
-0.00381491
-0.00375704
-0.00369821
-0.00363833
-0.00357729
-0.00351496
-0.00345113
-0.00338556
-0.00331793
-0.0032479
-0.0031751
-0.00309927
-0.00302048
-0.00293865
-0.00285353
-0.0027792
0.00614921
0.00582066
0.00548078
0.0051993
0.00494361
0.00467879
0.00438036
0.00402773
0.00360136
0.00308241
0.00245261
0.00169433
0.000790985
-0.000272143
-0.00150685
-0.00292084
-0.00451667
-0.00629102
-0.00823435
-0.010331
-0.0125597
-0.0148946
-0.017306
-0.0197616
-0.0222274
-0.0246681
-0.0270481
-0.029332
-0.0314845
-0.0334709
-0.0352579
-0.0368134
-0.0381076
-0.0391133
-0.0398068
-0.0401683
-0.0401824
-0.0398397
-0.0391394
-0.038084
-0.0366843
-0.034958
-0.0329302
-0.0306329
-0.0281042
-0.025388
-0.0225323
-0.0195885
-0.0166094
-0.0136477
-0.0107544
-0.00797733
-0.00535957
-0.00293884
-0.000746936
0.00119015
0.00285156
0.00422046
0.00528279
0.00602599
0.0064381
0.00650736
0.00622248
0.00557572
0.00456291
0.00318545
0.00145511
-0.000605986
-0.00296398
-0.0055729
-0.00837545
-0.0113046
-0.0142859
-0.01724
-0.0200856
-0.0227426
-0.025135
-0.0271941
-0.028861
-0.0300892
-0.0308488
-0.031121
-0.0309092
-0.0302344
-0.0291356
-0.0276694
-0.0259095
-0.0239427
-0.0218646
-0.0197722
-0.0177557
-0.0158902
-0.0142292
-0.0128012
-0.0116115
-0.0106466
-0.00988116
-0.00928479
-0.00882764
-0.00848337
-0.00823023
-0.00805063
-0.00793017
-0.00785661
-0.0078191
-0.00780806
-0.00781471
-0.00783115
-0.00785034
-0.00786628
-0.00787404
-0.00786983
-0.00785103
-0.00781609
-0.00776451
-0.00769664
-0.00761356
-0.00751691
-0.00740869
-0.00729111
-0.00716646
-0.00703696
-0.00690471
-0.00677159
-0.00663925
-0.00650906
-0.00638212
-0.00625929
-0.00614116
-0.00602815
-0.00592046
-0.00581815
-0.00572116
-0.00562933
-0.00554241
-0.00546012
-0.00538212
-0.00530809
-0.00523765
-0.00517046
-0.00510616
-0.00504442
-0.00498492
-0.00492735
-0.00487144
-0.0048169
-0.0047635
-0.004711
-0.00465921
-0.00460792
-0.00455698
-0.00450621
-0.00445548
-0.00440466
-0.00435365
-0.00430235
-0.00425066
-0.00419851
-0.00414584
-0.00409258
-0.00403868
-0.00398409
-0.00392876
-0.00387266
-0.00381573
-0.00375794
-0.00369924
-0.00363956
-0.00357882
-0.00351691
-0.00345368
-0.00338889
-0.00332226
-0.0032534
-0.00318191
-0.00310743
-0.00302991
-0.00294886
-0.00286312
-0.00279366
0.00578211
0.00543126
0.0050683
0.00476542
0.00448314
0.0041799
0.00382593
0.00339603
0.00286659
0.0022152
0.0014208
0.000463879
-0.000672842
-0.00200335
-0.00353717
-0.00527824
-0.00722412
-0.00936565
-0.0116871
-0.0141668
-0.0167782
-0.0194909
-0.0222718
-0.0250859
-0.0278973
-0.0306694
-0.0333652
-0.0359479
-0.0383806
-0.040627
-0.0426515
-0.04442
-0.0459003
-0.0470629
-0.047882
-0.0483359
-0.0484078
-0.0480874
-0.047373
-0.0462671
-0.0447811
-0.0429343
-0.0407539
-0.0382746
-0.0355384
-0.0325932
-0.0294923
-0.0262924
-0.0230521
-0.0198301
-0.0166832
-0.0136642
-0.0108206
-0.00819327
-0.0058158
-0.00371453
-0.0019094
-0.000415217
0.000756518
0.00159593
0.00209334
0.0022386
0.00202118
0.00143228
0.000467415
-0.00087283
-0.00257797
-0.00462604
-0.00698278
-0.00960113
-0.0124221
-0.0153765
-0.0183872
-0.0213721
-0.0242469
-0.0269285
-0.0293375
-0.0314021
-0.03306
-0.0342615
-0.0349741
-0.0351764
-0.034868
-0.0340677
-0.0328117
-0.0311544
-0.0291675
-0.0269378
-0.0245636
-0.0221483
-0.0197929
-0.0175864
-0.0155977
-0.0138699
-0.012419
-0.0112376
-0.0103011
-0.00957581
-0.00902572
-0.00861743
-0.00832231
-0.00811684
-0.0079819
-0.00790166
-0.00786262
-0.00785317
-0.00786302
-0.00788313
-0.00790561
-0.00792387
-0.00793261
-0.00792788
-0.00790706
-0.00786875
-0.00781266
-0.00773944
-0.00765047
-0.00754768
-0.00743333
-0.00730986
-0.00717974
-0.00704532
-0.00690878
-0.00677203
-0.00663671
-0.00650417
-0.00637548
-0.00625143
-0.00613255
-0.00601917
-0.00591144
-0.00580935
-0.00571277
-0.00562148
-0.00553521
-0.00545363
-0.00537636
-0.00530305
-0.00523332
-0.0051668
-0.00510313
-0.00504198
-0.004983
-0.0049259
-0.0048704
-0.00481623
-0.00476314
-0.00471092
-0.00465935
-0.00460825
-0.00455746
-0.00450681
-0.00445618
-0.00440543
-0.00435447
-0.0043032
-0.00425153
-0.0041994
-0.00414673
-0.00409346
-0.00403956
-0.00398497
-0.00392966
-0.00387358
-0.00381671
-0.003759
-0.00370042
-0.00364094
-0.00358049
-0.00351899
-0.00345631
-0.00339223
-0.00332647
-0.00325863
-0.00318824
-0.00311486
-0.00303831
-0.0029579
-0.00287153
-0.0028053
0.00495661
0.00460019
0.0042281
0.00391011
0.00360145
0.00325559
0.0028384
0.0023208
0.0016757
0.000877866
-9.5816e-05
-0.00126586
-0.00264926
-0.0042583
-0.00609937
-0.00817208
-0.0104688
-0.0129748
-0.015669
-0.0185248
-0.0215117
-0.0245962
-0.0277427
-0.0309147
-0.0340748
-0.037185
-0.0402067
-0.0431013
-0.0458296
-0.0483529
-0.0506327
-0.0526319
-0.0543156
-0.0556516
-0.0566114
-0.0571711
-0.0573118
-0.0570222
-0.0562999
-0.0551467
-0.0535744
-0.0516035
-0.049263
-0.0465903
-0.0436308
-0.0404369
-0.0370666
-0.0335826
-0.0300496
-0.0265329
-0.0230958
-0.0197974
-0.0166905
-0.0138203
-0.0112232
-0.00892668
-0.00695021
-0.00530676
-0.00400503
-0.00305176
-0.00245374
-0.002219
-0.00235677
-0.00287607
-0.00378202
-0.00507429
-0.00674366
-0.00876821
-0.0111131
-0.0137301