/*--------------------------------*- C++ -*----------------------------------*\
  =========                 |
  \\      /  F ield         | OpenFOAM: The Open Source CFD Toolbox
   \\    /   O peration     | Website:  https://openfoam.org
    \\  /    A nd           | Version:  8
     \\/     M anipulation  |
\*---------------------------------------------------------------------------*/
FoamFile
{
    version     2.0;
    format      ascii;
    class       surfaceScalarField;
    location    "0.52";
    object      phi;
}
// * * * * * * * * * * * * * * * * * * * * * * * * * * * * * * * * * * * * * //

dimensions      [0 3 -1 0 0 0 0];

internalField   nonuniform List<scalar> 
24170
(
-5.15473e-12
5.15473e-12
-7.40166e-13
-4.41456e-12
1.41163e-11
-1.48565e-11
3.81438e-11
-2.40275e-11
7.00029e-11
-3.18591e-11
1.0886e-10
-3.88574e-11
1.54214e-10
-4.53539e-11
2.05749e-10
-5.15345e-11
2.63291e-10
-5.75422e-11
3.26945e-10
-6.36541e-11
3.97405e-10
-7.04598e-11
4.76415e-10
-7.90103e-11
5.6726e-10
-9.08453e-11
6.74657e-10
-1.07397e-10
8.00437e-10
-1.2578e-10
9.13689e-10
-1.13252e-10
8.85799e-10
2.78896e-11
2.12925e-09
-1.24345e-09
-1.0035e-11
1.51897e-11
7.12576e-12
-2.15753e-11
5.61439e-11
-6.38746e-11
1.33256e-10
-1.0114e-10
2.34662e-10
-1.33265e-10
3.57692e-10
-1.61887e-10
5.00578e-10
-1.8824e-10
6.61992e-10
-2.12949e-10
8.40881e-10
-2.36431e-10
1.0367e-09
-2.59475e-10
1.24999e-09
-2.83743e-10
1.48288e-09
-3.11901e-10
1.73865e-09
-3.46618e-10
2.01711e-09
-3.85859e-10
2.29505e-09
-4.03724e-10
2.45654e-09
-2.74733e-10
1.99329e-09
4.91135e-10
4.72039e-09
-5.97852e-10
-9.85279e-12
2.50425e-11
2.60916e-11
-5.75197e-11
1.16616e-10
-1.54399e-10
2.55755e-10
-2.40279e-10
4.37221e-10
-3.14731e-10
6.5625e-10
-3.80916e-10
9.09403e-10
-4.41393e-10
1.19378e-09
-4.97323e-10
1.50663e-09
-5.49283e-10
1.8455e-09
-5.98342e-10
2.20856e-09
-6.46806e-10
2.59434e-09
-6.97681e-10
2.99845e-09
-7.50729e-10
3.40162e-09
-7.89031e-10
3.73353e-09
-7.35629e-10
3.7747e-09
-3.15903e-10
2.88544e-09
1.38039e-09
7.35456e-09
2.51282e-10
-4.32338e-12
2.93659e-11
5.77595e-11
-1.19603e-10
1.98161e-10
-2.94801e-10
4.08993e-10
-4.51111e-10
6.81417e-10
-5.87155e-10
1.00831e-09
-7.07811e-10
1.38408e-09
-8.17163e-10
1.80354e-09
-9.16781e-10
2.26119e-09
-1.00693e-09
2.75098e-09
-1.08813e-09
3.26599e-09
-1.16182e-09
3.79653e-09
-1.22822e-09
4.32326e-09
-1.27746e-09
4.79824e-09
-1.264e-09
5.09964e-09
-1.03703e-09
4.94326e-09
-1.59524e-10
3.76868e-09
2.55497e-09
9.86553e-09
1.25771e-09
6.89252e-12
2.24734e-11
1.03556e-10
-2.16266e-10
3.031e-10
-4.94345e-10
5.95774e-10
-7.43785e-10
9.70095e-10
-9.61476e-10
1.41629e-09
-1.154e-09
1.92605e-09
-1.32693e-09
2.49108e-09
-1.48181e-09
3.10186e-09
-1.61771e-09
3.74683e-09
-1.73311e-09
4.41104e-09
-1.82602e-09
5.07233e-09
-1.88951e-09
5.69135e-09
-1.89648e-09
6.18902e-09
-1.76168e-09
6.40463e-09
-1.25263e-09
6.04404e-09
2.01063e-10
4.7093e-09
3.8897e-09
1.21435e-08
2.43135e-09
2.39889e-11
-1.51556e-12
1.64467e-10
-3.56744e-10
4.33029e-10
-7.62906e-10
8.17809e-10
-1.12857e-09
1.30452e-09
-1.44818e-09
1.88039e-09
-1.72988e-09
2.53384e-09
-1.98037e-09
3.25251e-09
-2.20048e-09
4.02155e-09
-2.38676e-09
4.82195e-09
-2.5335e-09
5.62807e-09
-2.63214e-09
6.40229e-09
-2.66373e-09
7.08346e-09
-2.57766e-09
7.56594e-09
-2.24416e-09
7.67126e-09
-1.35795e-09
7.14066e-09
7.31662e-10
5.75354e-09
5.27682e-09
1.41281e-08
3.76897e-09
4.69841e-11
-4.84997e-11
2.40847e-10
-5.50607e-10
5.88466e-10
-1.11053e-09
1.07521e-09
-1.61531e-09
1.68371e-09
-2.05668e-09
2.39788e-09
-2.44405e-09
3.20221e-09
-2.7847e-09
4.07944e-09
-3.07772e-09
5.00813e-09
-3.31544e-09
5.96017e-09
-3.48554e-09
6.89744e-09
-3.56941e-09
7.76569e-09
-3.53198e-09
8.4839e-09
-3.29587e-09
8.92938e-09
-2.68964e-09
8.92829e-09
-1.35685e-09
8.28579e-09
1.37416e-09
6.93985e-09
6.62276e-09
1.57858e-08
5.28212e-09
7.55419e-11
-1.24042e-10
3.32162e-10
-8.07227e-10
7.68404e-10
-1.54677e-09
1.36586e-09
-2.21277e-09
2.10366e-09
-2.79449e-09
2.96205e-09
-3.30243e-09
3.92111e-09
-3.74376e-09
4.95795e-09
-4.11456e-09
6.04358e-09
-4.40107e-09
7.13983e-09
-4.58179e-09
8.19552e-09
-4.6251e-09
9.14087e-09
-4.47733e-09
9.88e-09
-4.035e-09
1.02851e-08
-3.0947e-09
1.02054e-08
-1.27722e-09
9.52214e-09
2.05744e-09
8.2982e-09
7.8467e-09
1.70975e-08
6.98651e-09
1.08948e-10
-2.3299e-10
4.36743e-10
-1.13502e-09
9.69808e-10
-2.07983e-09
1.68462e-09
-2.92759e-09
2.55635e-09
-3.66621e-09
3.56121e-09
-4.3073e-09
4.67458e-09
-4.85713e-09
5.86752e-09
-5.30749e-09
7.10315e-09
-5.6367e-09
8.33319e-09
-5.81184e-09
9.49439e-09
-5.78629e-09
1.05046e-08
-5.48753e-09
1.12601e-08
-4.79052e-09
1.16396e-08
-3.4742e-09
1.15279e-08
-1.16549e-09
1.08804e-08
2.70495e-09
9.84812e-09
8.87896e-09
1.80492e-08
8.89638e-09
1.46039e-10
-3.79029e-10
5.51515e-10
-1.5405e-09
1.18708e-09
-2.7154e-09
2.02261e-09
-3.76312e-09
3.02872e-09
-4.67232e-09
4.17748e-09
-5.45605e-09
5.43948e-09
-6.11914e-09
6.77986e-09
-6.64788e-09
8.15429e-09
-7.01113e-09
9.5055e-09
-7.16306e-09
1.07607e-08
-7.04145e-09
1.18301e-08
-6.55696e-09
1.261e-08
-5.57043e-09
1.2995e-08
-3.8592e-09
1.29105e-08
-1.08097e-09
1.23758e-08
3.23963e-09
1.15964e-08
9.65838e-09
1.86266e-08
1.1019e-08
1.8531e-10
-5.64339e-10
6.7177e-10
-2.02696e-09
1.41155e-09
-3.45518e-09
2.36633e-09
-4.7179e-09
3.5017e-09
-5.80769e-09
4.78558e-09
-6.73994e-09
6.18422e-09
-7.51778e-09
7.65761e-09
-8.12126e-09
9.1553e-09
-8.50882e-09
1.06134e-08
-8.62117e-09
1.19533e-08
-8.38137e-09
1.30836e-08
-7.68718e-09
1.39074e-08
-6.39425e-09
1.43413e-08
-4.29316e-09
1.43507e-08
-1.0903e-09
1.40036e-08
3.58671e-09
1.35323e-08
1.01297e-08
1.88108e-08
1.33481e-08
1.87596e-10
-7.51935e-10
6.59552e-10
-2.49891e-09
1.3619e-09
-4.15752e-09
2.25446e-09
-5.61046e-09
3.3039e-09
-6.85712e-09
4.48028e-09
-7.91632e-09
5.75246e-09
-8.78995e-09
7.08383e-09
-9.45263e-09
8.42888e-09
-9.85386e-09
9.7311e-09
-9.92339e-09
1.09233e-08
-9.57354e-09
1.19311e-08
-8.69502e-09
1.26827e-08
-7.14582e-09
1.31263e-08
-4.73683e-09
1.32594e-08
-1.22339e-09
1.3165e-08
3.68118e-09
1.30432e-08
1.02514e-08
1.86444e-08
1.32096e-08
2.46534e-10
-9.98469e-10
8.53135e-10
-3.10552e-09
1.73734e-09
-5.04173e-09
2.84499e-09
-6.7181e-09
4.13341e-09
-8.14555e-09
5.56566e-09
-9.34858e-09
7.10423e-09
-1.03285e-08
8.70576e-09
-1.10542e-08
1.03172e-08
-1.14653e-08
1.18742e-08
-1.14804e-08
1.33028e-08
-1.10021e-08
1.45254e-08
-9.91765e-09
1.5474e-08
-8.09435e-09
1.61105e-08
-5.37335e-09
1.64563e-08
-1.56917e-09
1.66234e-08
3.51408e-09
1.68346e-08
1.00402e-08
1.80716e-08
1.74075e-08
3.14267e-10
-1.31274e-09
1.07398e-09
-3.86523e-09
2.15951e-09
-6.12726e-09
3.49876e-09
-8.05735e-09
5.03853e-09
-9.68532e-09
6.735e-09
-1.1045e-08
8.54557e-09
-1.21391e-08
1.04225e-08
-1.2931e-08
1.23085e-08
-1.33514e-08
1.41363e-08
-1.33082e-08
1.58313e-08
-1.2697e-08
1.73201e-08
-1.14065e-08
1.85463e-08
-9.32048e-09
1.94912e-08
-6.31829e-09
2.0201e-08
-2.279e-09
2.08102e-08
2.9049e-09
2.155e-08
9.30041e-09
1.68958e-08
2.27258e-08
3.81555e-10
-1.69429e-09
1.28949e-09
-4.77317e-09
2.563e-09
-7.40077e-09
4.10943e-09
-9.60377e-09
5.86564e-09
-1.14415e-08
7.78337e-09
-1.29628e-08
9.81917e-09
-1.41749e-08
1.19268e-08
-1.50387e-08
1.40529e-08
-1.54774e-08
1.6136e-08
-1.53914e-08
1.81116e-08
-1.46726e-08
1.9921e-08
-1.32159e-08
2.15272e-08
-1.09267e-08
2.29346e-08
-7.72569e-09
2.42097e-08
-3.5541e-09
2.54967e-08
1.61794e-09
2.70173e-08
7.77976e-09
1.48647e-08
2.90484e-08
4.25366e-10
-2.11966e-09
1.42201e-09
-5.76982e-09
2.79493e-09
-8.7737e-09
4.43448e-09
-1.12433e-08
6.27265e-09
-1.32797e-08
8.26367e-09
-1.49538e-08
1.03723e-08
-1.62835e-08
1.2565e-08
-1.72314e-08
1.48054e-08
-1.77178e-08
1.7053e-08
-1.7639e-08
1.92674e-08
-1.6887e-08
2.1417e-08
-1.53656e-08
2.3492e-08
-1.30017e-08
2.55194e-08
-9.7531e-09
2.75773e-08
-5.61194e-09
2.98029e-08
-6.07668e-10
3.23893e-08
5.19337e-09
1.16873e-08
3.55668e-08
3.99048e-10
-2.5187e-09
1.31576e-09
-6.68653e-09
2.55172e-09
-1.00097e-08
3.99822e-09
-1.26898e-08
5.59622e-09
-1.48777e-08
7.31621e-09
-1.66738e-08
9.14606e-09
-1.81133e-08
1.10821e-08
-1.91675e-08
1.31233e-08
-1.9759e-08
1.5269e-08
-1.97847e-08
1.75209e-08
-1.91388e-08
1.98878e-08
-1.77325e-08
2.23941e-08
-1.5508e-08
2.50883e-08
-1.24473e-08
2.80506e-08
-8.57421e-09
3.13958e-08
-3.95293e-09
3.52721e-08
1.31709e-09
7.11298e-09
3.98464e-08
2.19437e-10
-2.73814e-09
6.99384e-10
-7.16648e-09
1.31193e-09
-1.06222e-08
1.99153e-09
-1.33694e-08
2.71485e-09
-1.5601e-08
3.48936e-09
-1.74483e-08
4.34507e-09
-1.8969e-08
5.3273e-09
-2.01497e-08
6.49055e-09
-2.09222e-08
7.89432e-09
-2.11885e-08
9.60078e-09
-2.08453e-08
1.16746e-08
-1.98064e-08
1.41845e-08
-1.80179e-08
1.72048e-08
-1.54676e-08
2.08176e-08
-1.2187e-08
2.51125e-08
-8.2479e-09
3.01839e-08
-3.75428e-09
1.16602e-09
3.61308e-08
-2.33079e-10
-2.50506e-09
-7.93703e-10
-6.60586e-09
-1.60904e-09
-9.80686e-09
-2.63525e-09
-1.23432e-08
-3.82492e-09
-1.44114e-08
-5.11364e-09
-1.61596e-08
-6.41626e-09
-1.76664e-08
-7.62748e-09
-1.89385e-08
-8.6251e-09
-1.99246e-08
-9.2751e-09
-2.05385e-08
-9.43785e-09
-2.06826e-08
-8.97454e-09
-2.02697e-08
-7.75332e-09
-1.92391e-08
-5.65452e-09
-1.75664e-08
-2.57493e-09
-1.52666e-08
1.56918e-09
-1.2392e-08
6.84061e-09
-9.02572e-09
-5.2707e-09
1.32773e-08
-4.9795e-10
-2.00711e-09
-1.64874e-09
-5.45507e-09
-3.25136e-09
-8.20424e-09
-5.20035e-09
-1.03942e-08
-7.423e-09
-1.21887e-08
-9.85277e-09
-1.37298e-08
-1.24165e-08
-1.51027e-08
-1.50277e-08
-1.63273e-08
-1.75836e-08
-1.73687e-08
-1.99666e-08
-1.81555e-08
-2.20482e-08
-1.8601e-08
-2.36957e-08
-1.86221e-08
-2.478e-08
-1.81547e-08
-2.51831e-08
-1.71633e-08
-2.48046e-08
-1.56452e-08
-2.35663e-08
-1.36303e-08
-2.1415e-08
-1.1177e-08
-8.36428e-09
-1.83214e-08
-5.77235e-10
-1.42988e-09
-1.91629e-09
-4.11601e-09
-3.78259e-09
-6.33794e-09
-6.05464e-09
-8.12217e-09
-8.6553e-09
-9.58804e-09
-1.15243e-08
-1.08608e-08
-1.46035e-08
-1.20236e-08
-1.7826e-08
-1.31048e-08
-2.11106e-08
-1.40841e-08
-2.43591e-08
-1.4907e-08
-2.7458e-08
-1.5502e-08
-3.02841e-08
-1.57961e-08
-3.27109e-08
-1.57279e-08
-3.46174e-08
-1.52568e-08
-3.58951e-08
-1.43675e-08
-3.64548e-08
-1.30706e-08
-3.62309e-08
-1.14009e-08
-9.41313e-09
-3.5182e-08
-5.25997e-10
-9.0388e-10
-1.77254e-09
-2.86947e-09
-3.53409e-09
-4.57639e-09
-5.69978e-09
-5.95648e-09
-8.19944e-09
-7.08839e-09
-1.0984e-08
-8.07623e-09
-1.40123e-08
-8.99518e-09
-1.72405e-08
-9.87658e-09
-2.06132e-08
-1.07114e-08
-2.40592e-08
-1.1461e-08
-2.74907e-08
-1.20706e-08
-3.08058e-08
-1.2481e-08
-3.38944e-08
-1.26393e-08
-3.66451e-08
-1.25062e-08
-3.89521e-08
-1.20604e-08
-4.07226e-08
-1.13e-08
-4.18818e-08
-1.02418e-08
-8.91969e-09
-4.23752e-08
-4.09719e-10
-4.94161e-10
-1.42324e-09
-1.85595e-09
-2.8931e-09
-3.10653e-09
-4.72914e-09
-4.12043e-09
-6.87102e-09
-4.9465e-09
-9.27985e-09
-5.6674e-09
-1.19286e-08
-6.34642e-09
-1.47919e-08
-7.01333e-09
-1.7837e-08
-7.66627e-09
-2.10182e-08
-8.2798e-09
-2.42743e-08
-8.81451e-09
-2.75292e-08
-9.22605e-09
-3.06957e-08
-9.47274e-09
-3.36807e-08
-9.52119e-09
-3.63912e-08
-9.34994e-09
-3.87403e-08
-8.95094e-09
-4.06527e-08
-8.32942e-09
-7.50414e-09
-4.20682e-08
-2.78458e-10
-2.15703e-10
-1.0233e-09
-1.11111e-09
-2.14771e-09
-1.98212e-09
-3.5821e-09
-2.68604e-09
-5.2755e-09
-3.25311e-09
-7.19696e-09
-3.74594e-09
-9.32923e-09
-4.21415e-09
-1.16597e-08
-4.68281e-09
-1.41723e-08
-5.1537e-09
-1.6841e-08
-5.61108e-09
-1.96271e-08
-6.02847e-09
-2.24782e-08
-6.37491e-09
-2.53307e-08
-6.62021e-09
-2.8113e-08
-6.73889e-09
-3.07501e-08
-6.71287e-09
-3.31684e-08
-6.53268e-09
-3.53001e-08
-6.19769e-09
-5.7166e-09
-3.70876e-08
-1.6229e-10
-5.34127e-11
-6.63883e-10
-6.09518e-10
-1.46625e-09
-1.17975e-09
-2.51618e-09
-1.63611e-09
-3.77111e-09
-1.99818e-09
-5.20639e-09
-2.31065e-09
-6.81117e-09
-2.60938e-09
-8.58076e-09
-2.91322e-09
-1.05094e-08
-3.22508e-09
-1.25846e-08
-3.53586e-09
-1.47841e-08
-3.82898e-09
-1.70745e-08
-4.08444e-09
-1.94126e-08
-4.28216e-09
-2.17469e-08
-4.40457e-09
-2.40215e-08
-4.43831e-09
-2.61789e-08
-4.37529e-09
-2.81638e-08
-4.21275e-09
-3.95365e-09
-2.99268e-08
-7.46992e-11
2.12865e-11
-3.84583e-10
-2.99634e-10
-9.21878e-10
-6.42455e-10
-1.64555e-09
-9.12438e-10
-2.52097e-09
-1.12275e-09
-3.52897e-09
-1.30266e-09
-4.66281e-09
-1.47553e-09
-5.92212e-09
-1.65392e-09
-7.3068e-09
-1.8404e-09
-8.81251e-09
-2.03015e-09
-1.04278e-08
-2.21366e-09
-1.21331e-08
-2.37918e-09
-1.39006e-08
-2.51464e-09
-1.5696e-08
-2.6092e-09
-1.74801e-08
-2.65421e-09
-1.92114e-08
-2.64393e-09
-2.08486e-08
-2.57565e-09
-2.44959e-09
-2.23526e-08
-1.82286e-11
3.95151e-11
-1.91786e-10
-1.26077e-10
-5.27576e-10
-3.06665e-10
-9.94078e-10
-4.45936e-10
-1.56462e-09
-5.52211e-10
-2.22506e-09
-6.42224e-10
-2.97145e-09
-7.29142e-10
-3.80529e-09
-8.20073e-10
-4.72897e-09
-9.1672e-10
-5.74231e-09
-1.01682e-09
-6.84038e-09
-1.11559e-09
-8.01256e-09
-1.207e-09
-9.24244e-09
-1.28477e-09
-1.05085e-08
-1.34311e-09
-1.17855e-08
-1.37727e-09
-1.30455e-08
-1.38386e-09
-1.42602e-08
-1.36103e-09
-1.30819e-09
-1.54016e-08
1.08535e-11
2.86616e-11
-7.45375e-11
-4.06862e-11
-2.65507e-10
-1.15695e-10
-5.39279e-10
-1.72164e-10
-8.77223e-10
-2.14267e-10
-1.26989e-09
-2.49557e-10
-1.71521e-09
-2.83821e-10
-2.21511e-09
-3.20174e-10
-2.7724e-09
-3.59432e-10
-3.38847e-09
-4.00747e-10
-4.06183e-09
-4.4222e-10
-4.78742e-09
-4.81412e-10
-5.55644e-09
-5.1575e-10
-6.35673e-09
-5.42821e-10
-7.17341e-09
-5.60591e-10
-7.98974e-09
-5.67531e-10
-8.78806e-09
-5.62702e-10
-5.45573e-10
-9.55068e-09
1.83967e-11
1.02649e-11
-1.53869e-11
-6.90266e-12
-1.06543e-10
-2.45385e-11
-2.41246e-10
-3.74613e-11
-4.08699e-10
-4.68142e-11
-6.03697e-10
-5.45595e-11
-8.2538e-10
-6.2137e-11
-1.07524e-09
-7.03157e-11
-1.35536e-09
-7.93091e-11
-1.66717e-09
-8.89367e-11
-2.01062e-09
-9.87702e-11
-2.38378e-09
-1.08251e-10
-2.78275e-09
-1.16783e-10
-3.20177e-09
-1.23797e-10
-3.63356e-09
-1.28802e-10
-4.06969e-09
-1.31408e-10
-4.50107e-09
-1.31323e-10
-1.28346e-10
-4.91829e-09
1.02649e-11
3.36219e-12
-2.11764e-11
-5.86377e-11
-1.05452e-10
-1.60011e-10
-2.22148e-10
-2.92464e-10
-3.71773e-10
-4.6071e-10
-5.5948e-10
-6.67731e-10
-7.84514e-10
-9.08311e-10
-1.03711e-09
-1.16852e-09
-1.29984e-09
-1.42819e-09
1.31841e-10
-1.31841e-10
4.57549e-10
-3.25709e-10
8.97803e-10
-4.40253e-10
1.38035e-09
-4.82549e-10
1.8494e-09
-4.69051e-10
2.2638e-09
-4.14401e-10
2.5944e-09
-3.30594e-10
2.82135e-09
-2.26951e-10
2.93164e-09
-1.10295e-10
2.91647e-09
1.51707e-11
2.77041e-09
1.46062e-10
2.48879e-09
2.81623e-10
2.06739e-09
4.21403e-10
1.50153e-09
5.6586e-10
7.8569e-10
7.15836e-10
-8.66013e-11
8.72291e-10
-1.12274e-09
1.03614e-09
-2.33067e-09
1.20793e-09
-3.71835e-09
1.38768e-09
-5.29319e-09
1.57484e-09
-7.06138e-09
1.76819e-09
-9.02717e-09
1.96579e-09
-1.11921e-08
2.16496e-09
-1.35545e-08
2.36233e-09
-1.61084e-08
2.55389e-09
-1.88435e-08
2.73512e-09
-2.17445e-08
2.90104e-09
-2.47909e-08
3.04644e-09
-2.79569e-08
3.16599e-09
-3.12114e-08
3.25446e-09
-3.45183e-08
3.30691e-09
-3.78371e-08
3.31884e-09
-4.11236e-08
3.28646e-09
-4.43304e-08
3.20677e-09
-4.74081e-08
3.07775e-09
-5.03066e-08
2.89848e-09
-5.29758e-08
2.66917e-09
-5.5367e-08
2.39123e-09
-5.74342e-08
2.06721e-09
-5.91349e-08
1.70073e-09
-6.04313e-08
1.29639e-09
-6.1291e-08
8.59677e-10
-6.16881e-08
3.97063e-10
-6.16017e-08
-8.63843e-11
-6.10173e-08
-5.84443e-10
-5.99312e-08
-1.08609e-09
-5.83443e-08
-1.5869e-09
-5.62642e-08
-2.08009e-09
-5.37044e-08
-2.55973e-09
-5.06839e-08
-3.02058e-09
-4.72257e-08
-3.45818e-09
-4.33568e-08
-3.86884e-09
-3.91073e-08
-4.24958e-09
-3.45092e-08
-4.59804e-09
-2.95969e-08
-4.91231e-09
-2.44062e-08
-5.1907e-09
-1.89747e-08
-5.43154e-09
-1.33418e-08
-5.63291e-09
-7.54949e-09
-5.79227e-09
-1.64356e-09
-5.90593e-09
4.32797e-09
-5.97153e-09
1.03127e-08
-5.98475e-09
1.62516e-08
-5.93886e-09
2.20806e-08
-5.82898e-09
2.7731e-08
-5.65043e-09
3.31299e-08
-5.3989e-09
3.8201e-08
-5.07115e-09
4.28667e-08
-4.66565e-09
4.70498e-08
-4.18309e-09
5.06766e-08
-3.62687e-09
5.36801e-08
-3.00344e-09
5.60026e-08
-2.3225e-09
5.75997e-08
-1.59716e-09
5.84447e-08
-8.44933e-10
5.85139e-08
-6.92079e-11
5.78387e-08
6.75223e-10
5.6441e-08
1.39771e-09
5.43738e-08
2.06711e-09
5.17092e-08
2.66466e-09
4.85355e-08
3.17367e-09
4.49546e-08
3.58095e-09
4.10768e-08
3.87779e-09
3.70161e-08
4.06068e-09
3.28846e-08
4.13152e-09
2.87871e-08
4.09744e-09
2.4817e-08
3.97015e-09
2.10521e-08
3.76486e-09
1.75531e-08
3.499e-09
1.43625e-08
3.19067e-09
1.15052e-08
2.85725e-09
8.99096e-09
2.51425e-09
6.81645e-09
2.17452e-09
4.96837e-09
1.84807e-09
3.42601e-09
1.54237e-09
2.16311e-09
1.2629e-09
1.14925e-09
1.01386e-09
3.50698e-10
7.98555e-10
-2.68754e-10
6.19451e-10
-7.46591e-10
4.77837e-10
-1.1199e-09
3.73309e-10
-1.42339e-09
3.03493e-10
-1.68749e-09
2.64093e-10
-1.93678e-09
2.4929e-10
-2.18925e-09
2.52474e-10
-2.45628e-09
2.6703e-10
-2.74324e-09
2.86963e-10
-3.05057e-09
3.07322e-10
-3.37495e-09
3.24382e-10
-3.71057e-09
3.35622e-10
-4.05016e-09
3.39591e-10
-4.38588e-09
3.35718e-10
-4.70999e-09
3.24114e-10
-5.01539e-09
3.05393e-10
-5.29591e-09
2.80523e-10
-5.54661e-09
2.50696e-10
-5.76382e-09
2.17217e-10
-5.94525e-09
1.81422e-10
-6.08984e-09
1.44597e-10
-6.19777e-09
1.07925e-10
-6.2702e-09
7.2437e-11
-6.30919e-09
3.89865e-11
-6.3176e-09
8.40701e-12
-6.29823e-09
-1.93693e-11
-6.2549e-09
-4.33254e-11
-6.19113e-09
-6.37696e-11
-6.11052e-09
-8.06188e-11
-6.01652e-09
-9.3997e-11
-5.9124e-09
-1.0412e-10
-5.80113e-09
-1.11268e-10
-5.68537e-09
-1.15759e-10
-5.56744e-09
-1.17931e-10
-5.44932e-09
-1.18125e-10
-5.33265e-09
-1.16671e-10
-5.21876e-09
-1.13881e-10
-5.10872e-09
-1.10039e-10
-5.00332e-09
-1.05401e-10
-4.90314e-09
-1.00189e-10
-4.80854e-09
-9.45965e-11
-4.71975e-09
-8.87863e-11
-4.63686e-09
-8.28932e-11
-4.55983e-09
-7.7027e-11
-4.48856e-09
-7.1275e-11
-4.42285e-09
-6.57055e-11
-4.36248e-09
-6.03699e-11
-4.30718e-09
-5.53056e-11
-4.25664e-09
-5.05383e-11
-4.21055e-09
-4.60844e-11
-4.1686e-09
-4.19519e-11
-4.13046e-09
-3.81427e-11
-4.0958e-09
-3.46534e-11
-4.06433e-09
-3.14762e-11
-4.03573e-09
-2.86005e-11
-4.00972e-09
-2.60126e-11
-3.98602e-09
-2.3697e-11
-3.96438e-09
-2.16368e-11
-3.94457e-09
-1.9814e-11
-3.92636e-09
-1.82097e-11
-3.90955e-09
-1.6804e-11
-3.89398e-09
-1.55762e-11
-3.87947e-09
-1.45031e-11
-3.86592e-09
-1.3558e-11
-3.85321e-09
-1.27068e-11
-3.84131e-09
-1.19042e-11
-3.83022e-09
-1.1088e-11
-3.82004e-09
-1.01768e-11
-3.81097e-09
-9.07174e-12
-3.8033e-09
-7.67037e-12
-3.7974e-09
-5.90032e-12
-3.79362e-09
-3.7784e-12
-3.7922e-09
-1.42067e-12
-3.79294e-09
7.37663e-13
-3.79474e-09
1.80009e-12
-3.79571e-09
9.6911e-13
-3.79206e-09
-3.64677e-12
-3.77853e-09
-1.35312e-11
-3.7473e-09
-3.12248e-11
-3.68624e-09
-6.1061e-11
-3.57646e-09
-1.09787e-10
-3.38807e-09
-1.8839e-10
-4.31465e-10
-2.9566e-09
2.40284e-10
-3.72125e-10
7.54766e-10
-8.40191e-10
1.38843e-09
-1.07392e-09
2.02186e-09
-1.11598e-09
2.56015e-09
-1.00734e-09
2.92941e-09
-7.83653e-10
3.07295e-09
-4.74134e-10
2.94751e-09
-1.01518e-10
2.5197e-09
3.17516e-10
1.7634e-09
7.71475e-10
6.56384e-10
1.25308e-09
-8.20405e-10
1.75841e-09
-2.68489e-09
2.28589e-09
-4.95437e-09
2.83534e-09
-7.64577e-09
3.40723e-09
-1.07754e-08
4.00188e-09
-1.4358e-08
4.61879e-09
-1.84061e-08
5.25605e-09
-2.29283e-08
5.90989e-09
-2.79279e-08
6.57439e-09
-3.3401e-08
7.24133e-09
-3.93355e-08
7.90023e-09
-4.5709e-08
8.53849e-09
-5.24884e-08
9.14175e-09
-5.96288e-08
9.69428e-09
-6.70733e-08
1.01796e-08
-7.47532e-08
1.0581e-08
-8.25889e-08
1.08822e-08
-9.04911e-08
1.10681e-08
-9.83622e-08
1.11256e-08
-1.06099e-07
1.10434e-08
-1.13593e-07
1.08135e-08
-1.20738e-07
1.04307e-08
-1.27424e-07
9.89332e-09
-1.33549e-07
9.20293e-09
-1.39016e-07
8.36457e-09
-1.43733e-07
7.38648e-09
-1.47621e-07
6.27977e-09
-1.50612e-07
5.05815e-09
-1.52649e-07
3.73736e-09
-1.53687e-07
2.33473e-09
-1.53697e-07
8.69201e-10
-1.52659e-07
-6.40948e-10
-1.5057e-07
-2.17533e-09
-1.4744e-07
-3.7139e-09
-1.43288e-07
-5.23832e-09
-1.38143e-07
-6.73213e-09
-1.32043e-07
-8.18037e-09
-1.25032e-07
-9.56996e-09
-1.17163e-07
-1.08899e-08
-1.0849e-07
-1.21311e-08
-9.90724e-08
-1.32866e-08
-8.89707e-08
-1.43513e-08
-7.82475e-08
-1.53212e-08
-6.69665e-08
-1.61934e-08
-5.51919e-08
-1.69652e-08
-4.29896e-08
-1.76339e-08
-3.04271e-08
-1.81954e-08
-1.75748e-08
-1.86446e-08
-4.50681e-09
-1.89739e-08
8.69462e-09
-1.9173e-08
2.19379e-08
-1.9228e-08
3.51241e-08
-1.91251e-08
4.81451e-08
-1.885e-08
6.08822e-08
-1.83875e-08
7.32064e-08
-1.77231e-08
8.49794e-08
-1.68442e-08
9.60555e-08
-1.57417e-08
1.06283e-07
-1.44111e-08
1.15511e-07
-1.28543e-08
1.23588e-07
-1.10803e-08
1.30372e-07
-9.10655e-09
1.35734e-07
-6.95915e-09
1.39562e-07
-4.67314e-09
1.41784e-07
-2.29139e-09
1.42328e-07
1.30987e-10
1.41198e-07
2.52858e-09
1.3842e-07
4.84429e-09
1.34075e-07
7.00974e-09
1.28286e-07
8.96283e-09
1.21221e-07
1.06464e-08
1.13086e-07
1.20128e-08
1.04119e-07
1.30273e-08
9.45792e-08
1.36714e-08
8.47317e-08
1.39449e-08
7.48361e-08
1.38657e-08
6.51326e-08
1.34684e-08
5.58302e-08
1.28014e-08
4.7099e-08
1.19218e-08
3.90655e-08
1.08908e-08
3.18121e-08
9.7677e-09
2.53798e-08
8.60676e-09
1.97738e-08
7.4541e-09
1.4969e-08
6.3472e-09
1.09162e-08
5.31565e-09
7.54769e-09
4.38238e-09
4.78147e-09
3.56477e-09
2.52611e-09
2.87481e-09
6.85458e-10
2.31849e-09
-8.3612e-10
1.89489e-09
-2.12834e-09
1.59571e-09
-3.2699e-09
1.40565e-09
-4.32486e-09
1.30425e-09
-5.34088e-09
1.2685e-09
-6.34926e-09
1.27541e-09
-7.36641e-09
1.30412e-09
-8.39643e-09
1.33734e-09
-9.434e-09
1.36195e-09
-1.04674e-08
1.36901e-09
-1.14811e-08
1.35331e-09
-1.24581e-08
1.31273e-09
-1.33816e-08
1.24762e-09
-1.42363e-08
1.16009e-09
-1.50093e-08
1.05354e-09
-1.56907e-08
9.32104e-10
-1.62738e-08
8.00296e-10
-1.67551e-08
6.62682e-10
-1.71341e-08
5.23609e-10
-1.74132e-08
3.87013e-10
-1.7597e-08
2.5628e-10
-1.76922e-08
1.34166e-10
-1.77066e-08
2.28285e-11
-1.76495e-08
-7.65428e-11
-1.753e-08
-1.62831e-10
-1.73578e-08
-2.35908e-10
-1.71425e-08
-2.9596e-10
-1.68929e-08
-3.43545e-10
-1.66175e-08
-3.79507e-10
-1.63239e-08
-4.04889e-10
-1.60188e-08
-4.20848e-10
-1.57082e-08
-4.28597e-10
-1.53969e-08
-4.29345e-10
-1.50894e-08
-4.24259e-10
-1.47888e-08
-4.1443e-10
-1.4498e-08
-4.00858e-10
-1.42189e-08
-3.84436e-10
-1.39532e-08
-3.6595e-10
-1.37017e-08
-3.46076e-10
-1.34651e-08
-3.25386e-10
-1.32436e-08
-3.04357e-10
-1.30373e-08
-2.83381e-10
-1.28458e-08
-2.62768e-10
-1.26687e-08
-2.42767e-10
-1.25055e-08
-2.23563e-10
-1.23556e-08
-2.05297e-10
-1.2218e-08
-1.88064e-10
-1.20922e-08
-1.71928e-10
-1.19772e-08
-1.56924e-10
-1.18723e-08
-1.43064e-10
-1.17766e-08
-1.30339e-10
-1.16894e-08
-1.18727e-10
-1.16098e-08
-1.08194e-10
-1.15371e-08
-9.86934e-11
-1.14706e-08
-9.01746e-11
-1.14097e-08
-8.25791e-11
-1.13536e-08
-7.58448e-11
-1.13019e-08
-6.99057e-11
-1.1254e-08
-6.46929e-11
-1.12095e-08
-6.0133e-11
-1.11678e-08
-5.61448e-11
-1.11288e-08
-5.26335e-11
-1.1092e-08
-4.94795e-11
-1.10574e-08
-4.65259e-11
-1.10249e-08
-4.35621e-11
-1.09948e-08
-4.03162e-11
-1.09674e-08
-3.64689e-11
-1.09433e-08
-3.17064e-11
-1.09234e-08
-2.5841e-11
-1.09082e-08
-1.90047e-11
-1.08977e-08
-1.18996e-11
-1.08908e-08
-6.14575e-12
-1.08845e-08
-4.52077e-12
-1.08725e-08
-1.09721e-11
-1.08453e-08
-3.09053e-11
-1.07881e-08
-7.06982e-11
-1.06808e-08
-1.38561e-10
-1.04953e-08
-2.46551e-10
-1.01925e-08
-4.12568e-10
-9.70669e-09
-6.74204e-10
-1.19029e-09
-8.94786e-09
1.94917e-10
-5.67042e-10
5.55751e-10
-1.20102e-09
9.13949e-10
-1.43212e-09
1.14294e-09
-1.34497e-09
1.14383e-09
-1.00824e-09
8.38357e-10
-4.78176e-10
1.62821e-10
2.01403e-10
-9.35372e-10
9.96675e-10
-2.50091e-09
1.88305e-09
-4.57278e-09
2.84335e-09
-7.186e-09
3.8663e-09
-1.03724e-08
4.94486e-09
-1.41612e-08
6.07468e-09
-1.85784e-08
7.25255e-09
-2.36463e-08
8.47511e-09
-2.9382e-08
9.73752e-09
-3.57956e-08
1.10324e-08
-4.28887e-08
1.23491e-08
-5.06518e-08
1.36729e-08
-5.90623e-08
1.49849e-08
-6.80832e-08
1.62622e-08
-7.76612e-08
1.74783e-08
-8.77266e-08
1.86039e-08
-9.81929e-08
1.9608e-08
-1.08958e-07
2.04593e-08
-1.19906e-07
2.11273e-08
-1.30908e-07
2.15836e-08
-1.4183e-07
2.18035e-08
-1.52528e-07
2.17668e-08
-1.62861e-07
2.14583e-08
-1.72687e-07
2.08692e-08
-1.81869e-07
1.99963e-08
-1.90281e-07
1.88428e-08
-1.97806e-07
1.74176e-08
-2.04338e-07
1.57352e-08
-2.09788e-07
1.38148e-08
-2.14081e-07
1.16796e-08
-2.17158e-07
9.35655e-09
-2.18975e-07
6.87486e-09
-2.19503e-07
4.2657e-09
-2.1873e-07
1.56148e-09
-2.16656e-07
-1.20453e-09
-2.13298e-07
-3.99947e-09
-2.08681e-07
-6.79193e-09
-2.02842e-07
-9.5529e-09
-1.95825e-07
-1.22557e-08
-1.87681e-07
-1.48761e-08
-1.78468e-07
-1.73933e-08
-1.68248e-07
-1.97894e-08
-1.57088e-07
-2.20499e-08
-1.45056e-07
-2.41639e-08
-1.32219e-07
-2.61232e-08
-1.18648e-07
-2.79224e-08
-1.04411e-07
-2.95583e-08
-8.95757e-08
-3.10286e-08
-7.42095e-08
-3.23314e-08
-5.83795e-08
-3.34639e-08
-4.21533e-08
-3.44216e-08
-2.56008e-08
-3.5197e-08
-8.7957e-09
-3.5779e-08
8.18282e-09
-3.61515e-08
2.5246e-08
-3.62912e-08
4.22939e-08
-3.6173e-08
5.92162e-08
-3.57723e-08
7.589e-08
-3.50613e-08
9.21795e-08
-3.40125e-08
1.07936e-07
-3.26006e-08
1.22999e-07
-3.08044e-08
1.37197e-07
-2.86095e-08
1.50353e-07
-2.60099e-08
1.62283e-07
-2.30104e-08
1.72804e-07
-1.9628e-08
1.81738e-07
-1.58934e-08
1.88917e-07
-1.18519e-08
1.9419e-07
-7.56392e-09
1.97426e-07
-3.10566e-09
1.98526e-07
1.42859e-09
1.97438e-07
5.93244e-09
1.94161e-07
1.02872e-08
1.88751e-07
1.43727e-08
1.81328e-07
1.80694e-08
1.72075e-07
2.12654e-08
1.61239e-07
2.38638e-08
1.49119e-07
2.57912e-08
1.36059e-07
2.70048e-08
1.22427e-07
2.74972e-08
1.08597e-07
2.72984e-08
9.49252e-08
2.64736e-08
8.17299e-08
2.51171e-08
6.92777e-08
2.33429e-08
5.77717e-08
2.12738e-08
4.73477e-08
1.90307e-08
3.80773e-08
1.67245e-08
2.99732e-08
1.44513e-08
2.29986e-08
1.22903e-08
1.70766e-08
1.03044e-08
1.20998e-08
8.54153e-09
7.94009e-09
7.03453e-09
4.45802e-09
5.80055e-09
1.51272e-09
4.84019e-09
-1.0291e-09
4.13753e-09
-3.28535e-09
3.6619e-09
-5.35268e-09
3.37157e-09
-7.30355e-09
3.21938e-09
-9.1866e-09
3.15845e-09
-1.10288e-08
3.14635e-09
-1.28394e-08
3.14788e-09
-1.46138e-08
3.13641e-09
-1.63386e-08
3.09375e-09
-1.79946e-08
3.00938e-09
-1.9561e-08
2.8791e-09
-2.10171e-08
2.70369e-09
-2.23446e-08
2.48757e-09
-2.35287e-08
2.23764e-09
-2.45588e-08
1.96229e-09
-2.54291e-08
1.67055e-09
-2.61379e-08
1.37144e-09
-2.66877e-08
1.07342e-09
-2.70847e-08
7.84045e-10
-2.73381e-08
5.09708e-10
-2.74594e-08
2.55489e-10
-2.74618e-08
2.51417e-11
-2.73593e-08
-1.7896e-10
-2.71667e-08
-3.555e-10
-2.68983e-08
-5.04307e-10
-2.65682e-08
-6.26068e-10
-2.61896e-08
-7.22154e-10
-2.57746e-08
-7.9445e-10
-2.53343e-08
-8.45185e-10
-2.48784e-08
-8.7679e-10
-2.44152e-08
-8.91766e-10
-2.3952e-08
-8.92587e-10
-2.34946e-08
-8.81622e-10
-2.3048e-08
-8.61082e-10
-2.26158e-08
-8.3298e-10
-2.22011e-08
-7.99118e-10
-2.1806e-08
-7.61072e-10
-2.14319e-08
-7.20204e-10
-2.10796e-08
-6.77668e-10
-2.07495e-08
-6.34424e-10
-2.04417e-08
-5.91263e-10
-2.01556e-08
-5.4882e-10
-1.98908e-08
-5.07594e-10
-1.96464e-08
-4.67972e-10
-1.94214e-08
-4.3024e-10
-1.92149e-08
-3.94602e-10
-1.90256e-08
-3.6119e-10
-1.88525e-08
-3.30083e-10
-1.86942e-08
-3.0131e-10
-1.85497e-08
-2.7486e-10
-1.84177e-08
-2.50692e-10
-1.82972e-08
-2.2874e-10
-1.8187e-08
-2.08917e-10
-1.8086e-08
-1.91119e-10
-1.79934e-08
-1.75233e-10
-1.79081e-08
-1.61133e-10
-1.78293e-08
-1.48688e-10
-1.77562e-08
-1.37758e-10
-1.76882e-08
-1.28195e-10
-1.76245e-08
-1.19836e-10
-1.75646e-08
-1.1249e-10
-1.75082e-08
-1.05918e-10
-1.74549e-08
-9.98115e-11
-1.74047e-08
-9.37617e-11
-1.73578e-08
-8.72534e-11
-1.73145e-08
-7.96973e-11
-1.72757e-08
-7.0549e-11
-1.7242e-08
-5.95541e-11
-1.72138e-08
-4.71438e-11
-1.71908e-08
-3.49626e-11
-1.71705e-08
-2.64581e-11
-1.71476e-08
-2.73421e-11
-1.71128e-08
-4.58231e-11
-1.70512e-08
-9.25516e-11
-1.69416e-08
-1.80297e-10
-1.67557e-08
-3.24372e-10
-1.64576e-08
-5.4466e-10
-1.60002e-08
-8.70029e-10
-1.53253e-08
-1.34904e-09
-2.07991e-09
-1.44357e-08
4.87087e-11
-6.15751e-10
1.84237e-11
-1.17074e-09
-2.27152e-10
-1.18654e-09
-7.90076e-10
-7.82041e-10
-1.75218e-09
-4.61384e-11
-3.17603e-09
9.45672e-10
-5.1198e-09
2.14517e-09
-7.63413e-09
3.51101e-09
-1.0766e-08
5.0149e-09
-1.45595e-08
6.63686e-09
-1.90559e-08
8.36268e-09
-2.42925e-08
1.01815e-08
-3.03016e-08
1.20837e-08
-3.7108e-08
1.40589e-08
-4.47272e-08
1.60943e-08
-5.31627e-08
1.81731e-08
-6.24036e-08
2.02733e-08
-7.24217e-08
2.23673e-08
-8.31702e-08
2.44214e-08
-9.45817e-08
2.63964e-08
-1.06568e-07
2.82486e-08
-1.19021e-07
2.99314e-08
-1.31814e-07
3.13969e-08
-1.44805e-07
3.25986e-08
-1.57839e-07
3.34932e-08
-1.70754e-07
3.40425e-08
-1.83386e-07
3.42153e-08
-1.95571e-07
3.39885e-08
-2.07152e-07
3.33478e-08
-2.17982e-07
3.22881e-08
-2.27926e-07
3.0813e-08
-2.36864e-07
2.89346e-08
-2.44693e-07
2.66721e-08
-2.51327e-07
2.40517e-08
-2.56697e-07
2.11047e-08
-2.60749e-07
1.78668e-08
-2.63446e-07
1.43773e-08
-2.64767e-07
1.06776e-08
-2.64703e-07
6.81091e-09
-2.63259e-07
2.82132e-09
-2.60451e-07
-1.24652e-09
-2.56306e-07
-5.34991e-09
-2.50857e-07
-9.44771e-09
-2.44148e-07
-1.35016e-08
-2.36225e-07
-1.74756e-08
-2.27144e-07
-2.13368e-08
-2.16964e-07
-2.50557e-08
-2.0575e-07
-2.86073e-08
-1.93569e-07
-3.19707e-08
-1.80489e-07
-3.51298e-08
-1.6658e-07
-3.80728e-08
-1.51911e-07
-4.07921e-08
-1.3655e-07
-4.32839e-08
-1.20561e-07
-4.55469e-08
-1.04008e-07
-4.75814e-08
-8.69518e-08
-4.93878e-08
-6.94508e-08
-5.09649e-08
-5.15634e-08
-5.2309e-08
-3.33488e-08
-5.34116e-08
-1.48694e-08
-5.42585e-08
3.80833e-09
-5.48292e-08
2.26119e-08
-5.50948e-08
4.14557e-08
-5.50168e-08
6.02412e-08
-5.45577e-08
7.88568e-08
-5.36769e-08
9.71772e-08
-5.23328e-08
1.15063e-07
-5.04859e-08
1.3236e-07
-4.81016e-08
1.48903e-07
-4.5153e-08
1.64517e-07
-4.16238e-08
1.79017e-07
-3.75107e-08
1.92215e-07
-3.28257e-08
2.03919e-07
-2.75975e-08
2.13941e-07
-2.18734e-08
2.22097e-07
-1.57202e-08
2.28217e-07
-9.22548e-09
2.32142e-07
-2.4969e-09
2.33741e-07
4.33333e-09
2.32919e-07
1.11097e-08
2.29631e-07
1.76605e-08
2.23894e-07
2.38068e-08
2.15792e-07
2.9367e-08
2.05489e-07
3.41675e-08
1.93225e-07
3.80546e-08
1.79321e-07
4.09086e-08
1.64162e-07
4.26563e-08
1.4818e-07
4.32811e-08
1.31826e-07
4.2827e-08
1.15547e-07
4.13964e-08
9.97496e-08
3.91404e-08
8.47798e-08
3.62436e-08
7.09049e-08
3.29056e-08
5.83054e-08
2.93241e-08
4.70755e-08
2.56812e-08
3.72309e-08
2.21349e-08
2.87201e-08
1.88152e-08
2.14388e-08
1.58228e-08
1.52447e-08
1.32286e-08
9.97291e-09
1.10724e-08
5.45089e-09
9.36222e-09
1.51241e-09