/*--------------------------------*- C++ -*----------------------------------*\
  =========                 |
  \\      /  F ield         | OpenFOAM: The Open Source CFD Toolbox
   \\    /   O peration     | Website:  https://openfoam.org
    \\  /    A nd           | Version:  8
     \\/     M anipulation  |
\*---------------------------------------------------------------------------*/
FoamFile
{
    version     2.0;
    format      ascii;
    class       volVectorField;
    location    "0.52";
    object      U;
}
// * * * * * * * * * * * * * * * * * * * * * * * * * * * * * * * * * * * * * //

dimensions      [0 1 -1 0 0 0 0];

internalField   nonuniform List<vector> 
12225
(
(-1.19242e-05 1.69895e-06 0)
(-1.76932e-05 -2.41386e-07 0)
(1.33586e-05 -1.47012e-06 0)
(7.49493e-05 -2.65438e-06 0)
(0.000163183 -3.72185e-06 0)
(0.000274353 -4.7775e-06 0)
(0.000406565 -5.86158e-06 0)
(0.000558594 -7.0135e-06 0)
(0.000729665 -8.2739e-06 0)
(0.000919547 -9.72882e-06 0)
(0.0011293 -1.15662e-05 0)
(0.00136256 -1.41647e-05 0)
(0.00162752 -1.82586e-05 0)
(0.00193829 -2.51175e-05 0)
(0.00231422 -3.54996e-05 0)
(0.00277583 -4.16532e-05 0)
(0.00327642 -7.72717e-05 0)
(0.000805823 0.0018869 0)
(-2.60924e-05 6.6507e-06 0)
(-2.88532e-05 -6.37049e-06 0)
(7.00987e-05 -2.20343e-05 0)
(0.000256371 -3.69759e-05 0)
(0.00051929 -5.10279e-05 0)
(0.000848556 -6.47806e-05 0)
(0.00123821 -7.87015e-05 0)
(0.00168392 -9.30698e-05 0)
(0.00218221 -0.000108136 0)
(0.00273052 -0.000124438 0)
(0.00332848 -0.000143201 0)
(0.00398003 -0.000166727 0)
(0.00469489 -0.000198473 0)
(0.00548427 -0.000241384 0)
(0.00634019 -0.000286982 0)
(0.00714814 -0.000256018 0)
(0.00750255 0.000233853 0)
(0.00271573 0.00449774 0)
(-3.28187e-05 1.31893e-05 0)
(-1.74845e-05 -2.27674e-05 0)
(0.000158009 -6.81345e-05 0)
(0.000474229 -0.000111783 0)
(0.000914676 -0.000153169 0)
(0.00146302 -0.000193605 0)
(0.00210885 -0.000234255 0)
(0.00284386 -0.000275708 0)
(0.00366048 -0.000318364 0)
(0.00455144 -0.000363149 0)
(0.00551081 -0.000412245 0)
(0.006535 -0.000469324 0)
(0.0076204 -0.000537712 0)
(0.00874763 -0.000611377 0)
(0.00983295 -0.000638968 0)
(0.0105646 -0.00038628 0)
(0.010207 0.00106136 0)
(0.00458272 0.00764157 0)
(-3.36547e-05 1.83983e-05 0)
(1.4754e-05 -5.40108e-05 0)
(0.000275812 -0.000146217 0)
(0.000726692 -0.000235584 0)
(0.00134596 -0.000320728 0)
(0.00211178 -0.000403785 0)
(0.00300892 -0.000486747 0)
(0.0040242 -0.000570404 0)
(0.00514435 -0.000654948 0)
(0.00635479 -0.000741064 0)
(0.00763953 -0.000830773 0)
(0.00897965 -0.000926575 0)
(0.0103453 -0.0010252 0)
(0.0116682 -0.00109567 0)
(0.012773 -0.00100903 0)
(0.0131959 -0.000324378 0)
(0.0120905 0.00234692 0)
(0.00647906 0.0109403 0)
(-2.99523e-05 1.84038e-05 0)
(6.56248e-05 -0.000105218 0)
(0.000420945 -0.000261852 0)
(0.00101013 -0.00041462 0)
(0.00180742 -0.000560671 0)
(0.00278597 -0.00070287 0)
(0.00392537 -0.000843952 0)
(0.00520667 -0.000984513 0)
(0.00660932 -0.00112374 0)
(0.00810886 -0.00126069 0)
(0.00967503 -0.00139479 0)
(0.0112673 -0.00152274 0)
(0.0128213 -0.00162552 0)
(0.0142143 -0.00163047 0)
(0.0151936 -0.00130856 0)
(0.0152318 -1.7377e-05 0)
(0.0135675 0.00390806 0)
(0.00842216 0.014015 0)
(-2.28589e-05 9.39872e-06 0)
(0.000132238 -0.000182217 0)
(0.000589356 -0.000421424 0)
(0.00131876 -0.000655845 0)
(0.00229056 -0.000880486 0)
(0.00347331 -0.0010987 0)
(0.00484117 -0.00131361 0)
(0.00636862 -0.00152491 0)
(0.00802648 -0.00172948 0)
(0.00977822 -0.00192263 0)
(0.0115763 -0.00209766 0)
(0.0133548 -0.00223947 0)
(0.0150131 -0.00230387 0)
(0.0163806 -0.00216451 0)
(0.0171597 -0.00148922 0)
(0.0168456 0.000517006 0)
(0.0148741 0.00559006 0)
(0.010411 0.0167243 0)
(-1.339e-05 -1.24072e-05 0)
(0.000211058 -0.000291286 0)
(0.000775456 -0.000631853 0)
(0.00164448 -0.000966546 0)
(0.00278391 -0.00128769 0)
(0.00415801 -0.00159875 0)
(0.00573535 -0.00190266 0)
(0.00748335 -0.00219716 0)
(0.00936324 -0.00247508 0)
(0.0113252 -0.00272521 0)
(0.013303 -0.00293046 0)
(0.0152054 -0.0030579 0)
(0.0168995 -0.00303079 0)
(0.0181828 -0.00266514 0)
(0.0187505 -0.00154107 0)
(0.0181822 0.00122016 0)
(0.0161449 0.00727128 0)
(0.0124477 0.0190276 0)
(-2.44543e-06 -5.06694e-05 0)
(0.000297946 -0.000438773 0)
(0.000972061 -0.000900009 0)
(0.00197675 -0.00135354 0)
(0.00327284 -0.00178878 0)
(0.00482057 -0.00220889 0)
(0.00658298 -0.0026158 0)
(0.00852028 -0.00300399 0)
(0.010584 -0.00336011 0)
(0.0127108 -0.0036633 0)
(0.0148169 -0.00388181 0)
(0.0167889 -0.00395984 0)
(0.0184711 -0.0037846 0)
(0.0196489 -0.00311926 0)
(0.0200439 -0.00148422 0)
(0.0193508 0.0020134 0)
(0.0174486 0.00884848 0)
(0.0145305 0.020903 0)
(9.14622e-06 -0.000108673 0)
(0.000388192 -0.000630669 0)
(0.00117042 -0.00123215 0)
(0.00230252 -0.00182253 0)
(0.00373952 -0.00238847 0)
(0.00543781 -0.00293249 0)
(0.00735528 -0.0034546 0)
(0.00944538 -0.00394447 0)
(0.0116505 -0.00438034 0)
(0.0138957 -0.00472859 0)
(0.0160823 -0.00493918 0)
(0.0180813 -0.00493044 0)
(0.0197262 -0.00455451 0)
(0.0208101 -0.00353375 0)
(0.0211035 -0.00136226 0)
(0.0204208 0.00280883 0)
(0.0188061 0.0102315 0)
(0.0166463 0.0223317 0)
(2.06207e-05 -0.000189172 0)
(0.000476623 -0.000872041 0)
(0.00136036 -0.00163325 0)
(0.00260638 -0.00237728 0)
(0.00416297 -0.00308887 0)
(0.00598302 -0.00376964 0)
(0.00801996 -0.00441676 0)
(0.0102216 -0.00501361 0)
(0.0125231 -0.00552784 0)
(0.0148405 -0.00591047 0)
(0.0170656 -0.00609076 0)
(0.0190621 -0.00596075 0)
(0.0206653 -0.00534268 0)
(0.0216913 -0.00393452 0)
(0.0219704 -0.00123634 0)
(0.0214224 0.00351556 0)
(0.0202022 0.0113412 0)
(0.0187665 0.0232959 0)
(3.12675e-05 -0.000294043 0)
(0.000557726 -0.00116614 0)
(0.00153047 -0.00210596 0)
(0.00287072 -0.00301864 0)
(0.00451941 -0.00388837 0)
(0.00642635 -0.004716 0)
(0.00854173 -0.00549514 0)
(0.0108095 -0.00620159 0)
(0.0131604 -0.0067907 0)
(0.0155057 -0.00719639 0)
(0.0177341 -0.00732646 0)
(0.0197109 -0.00704877 0)
(0.0212841 -0.00616383 0)
(0.0223026 -0.00436275 0)
(0.0226564 -0.00117813 0)
(0.0223473 0.00404496 0)
(0.0215915 0.0121081 0)
(0.0208425 0.0237749 0)
(3.98279e-05 -0.000413457 0)
(0.00062038 -0.00148466 0)
(0.00165723 -0.0026043 0)
(0.00305963 -0.00368294 0)
(0.00476151 -0.0047062 0)
(0.00671061 -0.00567477 0)
(0.00885564 -0.0065787 0)
(0.0111394 -0.00738607 0)
(0.0134917 -0.0080401 0)
(0.0158244 -0.00845854 0)
(0.0180292 -0.00853034 0)
(0.0199806 -0.00810499 0)
(0.0215457 -0.00697168 0)
(0.022607 -0.00482952 0)
(0.0231022 -0.00125771 0)
(0.0230845 0.00429176 0)
(0.0227912 0.0124434 0)
(0.0226385 0.0237527 0)
(4.73667e-05 -0.000550842 0)
(0.000668831 -0.00184018 0)
(0.00174911 -0.00314955 0)
(0.00318724 -0.00439968 0)
(0.00491024 -0.00557951 0)
(0.0068647 -0.00669038 0)
(0.00899952 -0.00771892 0)
(0.0112586 -0.00862543 0)
(0.0135743 -0.009341 0)
(0.0158629 -0.00976786 0)
(0.0180245 -0.00977811 0)
(0.0199478 -0.00920716 0)
(0.0215232 -0.00784019 0)
(0.0226658 -0.00539392 0)
(0.0233521 -0.00150202 0)
(0.0236667 0.00427889 0)
(0.0238445 0.0124202 0)
(0.0242512 0.0233136 0)
(5.42013e-05 -0.000729374 0)
(0.000701143 -0.00229297 0)
(0.00179795 -0.00382995 0)
(0.00323561 -0.0052808 0)
(0.00493449 -0.00664104 0)
(0.00684142 -0.00791409 0)
(0.00890809 -0.00908347 0)
(0.0110831 -0.0101012 0)
(0.0133058 -0.0108853 0)
(0.0155032 -0.0113221 0)
(0.0175906 -0.0112679 0)
(0.0194781 -0.010548 0)
(0.0210846 -0.00895141 0)
(0.0223586 -0.00622365 0)
(0.0233084 -0.00206441 0)
(0.0240336 0.00386004 0)
(0.0247475 0.0118775 0)
(0.0257533 0.0222399 0)
(5.84636e-05 -0.000952566 0)
(0.000700475 -0.00285041 0)
(0.00176394 -0.00465169 0)
(0.00313688 -0.00632836 0)
(0.00473608 -0.00788783 0)
(0.00651132 -0.00933825 0)
(0.00842106 -0.0106616 0)
(0.0104236 -0.0118025 0)
(0.0124718 -0.0126668 0)
(0.0145101 -0.0131265 0)
(0.0164767 -0.0130255 0)
(0.0183094 -0.0121845 0)
(0.0199583 -0.0104044 0)
(0.0214026 -0.00746836 0)
(0.0226714 -0.00314692 0)
(0.0238627 0.00278845 0)
(0.0251532 0.01054 0)
(0.0267788 0.0202452 0)
(5.74123e-05 -0.0012147 0)
(0.000642659 -0.00349615 0)
(0.0015902 -0.00558678 0)
(0.00279441 -0.00750119 0)
(0.00417601 -0.009266 0)
(0.00569257 -0.0108986 0)
(0.00731462 -0.012383 0)
(0.00901641 -0.0136598 0)
(0.010771 -0.0146263 0)
(0.0125478 -0.0151442 0)
(0.014314 -0.0150502 0)
(0.0160394 -0.0141671 0)
(0.017705 -0.0123133 0)
(0.0193145 -0.00931225 0)
(0.0209067 -0.00500122 0)
(0.0225648 0.000757981 0)
(0.0244204 0.00806622 0)
(0.0266449 0.0169726 0)
(4.74702e-05 -0.00148892 0)
(0.000495819 -0.00416237 0)
(0.00120251 -0.0065344 0)
(0.0020828 -0.00866911 0)
(0.00307457 -0.01062 0)
(0.00415043 -0.0124201 0)
(0.00529894 -0.0140617 0)
(0.00651615 -0.0154877 0)
(0.00780116 -0.0165934 0)
(0.00915363 -0.0172374 0)
(0.0105736 -0.0172558 0)
(0.0120636 -0.016478 0)
(0.0136333 -0.0147415 0)
(0.015305 -0.0119051 0)
(0.0171191 -0.00785861 0)
(0.0191383 -0.00253044 0)
(0.0214473 0.00410783 0)
(0.024163 0.0120416 0)
(2.41367e-05 -0.00170692 0)
(0.000223886 -0.0046828 0)
(0.000520221 -0.0072565 0)
(0.000868845 -0.0095371 0)
(0.00124253 -0.0116086 0)
(0.00163737 -0.0135259 0)
(0.00206427 -0.0152978 0)
(0.00254395 -0.0168787 0)
(0.00310351 -0.0181718 0)
(0.00377375 -0.0190414 0)
(0.0045874 -0.0193298 0)
(0.00557839 -0.0188758 0)
(0.00678221 -0.0175324 0)
(0.0082367 -0.0151813 0)
(0.00998294 -0.0117433 0)
(0.0120665 -0.00718369 0)
(0.0145386 -0.00151277 0)
(0.0174683 0.00521832 0)
(-1.84668e-05 -0.00173042 0)
(-0.000192965 -0.00472732 0)
(-0.000490857 -0.00728721 0)
(-0.000895349 -0.0095349 0)
(-0.00138316 -0.0115755 0)
(-0.00193023 -0.0134866 0)
(-0.00250475 -0.0153001 0)
(-0.00306544 -0.0169923 0)
(-0.00356247 -0.0184863 0)
(-0.00393941 -0.0196642 0)
(-0.00413579 -0.0203834 0)
(-0.00408996 -0.0204958 0)
(-0.00374198 -0.0198657 0)
(-0.00303633 -0.0183844 0)
(-0.00192436 -0.015981 0)
(-0.000364952 -0.012627 0)
(0.00167707 -0.0083368 0)
(0.00424539 -0.0031618 0)
(-5.59037e-05 -0.00145676 0)
(-0.000563425 -0.00405171 0)
(-0.00138571 -0.00629489 0)
(-0.00245292 -0.00827066 0)
(-0.00370282 -0.010074 0)
(-0.00509534 -0.0117894 0)
(-0.0065913 -0.0134651 0)
(-0.00814435 -0.0150996 0)
(-0.00969853 -0.0166418 0)
(-0.011188 -0.0179994 0)
(-0.0125387 -0.0190533 0)
(-0.0136716 -0.0196737 0)
(-0.0145076 -0.0197366 0)
(-0.0149717 -0.0191375 0)
(-0.0149985 -0.0178019 0)
(-0.0145345 -0.0156909 0)
(-0.0135366 -0.0128036 0)
(-0.0119606 -0.00917389 0)
(-7.14331e-05 -0.00109811 0)
(-0.000750276 -0.00318303 0)
(-0.00185228 -0.00503562 0)
(-0.00328064 -0.00667778 0)
(-0.00495544 -0.00818109 0)
(-0.00683204 -0.00962538 0)
(-0.00887305 -0.0110653 0)
(-0.0110376 -0.0125147 0)
(-0.013276 -0.0139437 0)
(-0.015527 -0.015285 0)
(-0.017718 -0.0164449 0)
(-0.0197669 -0.017316 0)
(-0.0215868 -0.0177909 0)
(-0.0230917 -0.0177744 0)
(-0.0242021 -0.0171928 0)
(-0.0248503 -0.0159997 0)
(-0.024979 -0.0141794 0)
(-0.0245358 -0.0117471 0)
(-6.96231e-05 -0.000735721 0)
(-0.000787464 -0.00229803 0)
(-0.00197685 -0.00374439 0)
(-0.00353367 -0.00503496 0)
(-0.00537415 -0.00621598 0)
(-0.00745411 -0.0073569 0)
(-0.0097414 -0.00851197 0)
(-0.0122048 -0.0097035 0)
(-0.0148067 -0.0109182 0)
(-0.0174981 -0.0121109 0)
(-0.0202166 -0.0132127 0)
(-0.022887 -0.0141404 0)
(-0.0254248 -0.0148073 0)
(-0.0277413 -0.0151325 0)
(-0.0297503 -0.0150488 0)
(-0.0313732 -0.0145083 0)
(-0.0325408 -0.0134856 0)
(-0.0331904 -0.0119808 0)
(-5.47497e-05 -0.000432586 0)
(-0.000709615 -0.0015363 0)
(-0.00183871 -0.00261137 0)
(-0.00334421 -0.00357429 0)
(-0.00514619 -0.00445129 0)
(-0.00720227 -0.00529939 0)
(-0.00948561 -0.00616733 0)
(-0.0119748 -0.00708 0)
(-0.0146455 -0.00803469 0)
(-0.0174634 -0.0090035 0)
(-0.0203806 -0.0099389 0)
(-0.0233349 -0.0107807 0)
(-0.0262516 -0.0114636 0)
(-0.0290481 -0.011924 0)
(-0.0316392 -0.0121061 0)
(-0.0339431 -0.0119664 0)
(-0.0358842 -0.0114768 0)
(-0.0373938 -0.0106279 0)
(-3.24034e-05 -0.000212628 0)
(-0.000563028 -0.00095161 0)
(-0.00154055 -0.00171278 0)
(-0.00287975 -0.00239371 0)
(-0.00450743 -0.00300821 0)
(-0.0063828 -0.00360084 0)
(-0.00848327 -0.00421188 0)
(-0.0107957 -0.0048644 0)
(-0.0133071 -0.00556117 0)
(-0.0159971 -0.00628628 0)
(-0.0188326 -0.00700899 0)
(-0.0217666 -0.00768843 0)
(-0.0247382 -0.00827864 0)
(-0.0276764 -0.00873338 0)
(-0.030504 -0.00901031 0)
(-0.0331432 -0.00907428 0)
(-0.0355195 -0.00889957 0)
(-0.037564 -0.00847314 0)
(-7.92969e-06 -7.40354e-05 0)
(-0.000391014 -0.000542513 0)
(-0.00117593 -0.00105238 0)
(-0.00229072 -0.0015051 0)
(-0.00366921 -0.00190831 0)
(-0.00527217 -0.00229503 0)
(-0.00708045 -0.0026959 0)
(-0.00908702 -0.00312957 0)
(-0.0112876 -0.00360067 0)
(-0.0136728 -0.0041009 0)
(-0.0162225 -0.00461159 0)
(-0.018904 -0.00510681 0)
(-0.0216711 -0.00555647 0)
(-0.0244668 -0.00592944 0)
(-0.0272263 -0.00619628 0)
(-0.029881 -0.0063314 0)
(-0.0323634 -0.00631455 0)
(-0.0346101 -0.00613302 0)
(1.42482e-05 -1.55901e-06 0)
(-0.000227239 -0.000279876 0)
(-0.000815085 -0.000597517 0)
(-0.00168841 -0.000875651 0)
(-0.00278799 -0.00111934 0)
(-0.00407711 -0.00135134 0)
(-0.00553977 -0.00159284 0)
(-0.00717317 -0.00185715 0)
(-0.00897878 -0.00214859 0)
(-0.0109549 -0.00246326 0)
(-0.0130914 -0.00279068 0)
(-0.0153675 -0.00311562 0)
(-0.0177504 -0.00342001 0)
(-0.0201974 -0.00368466 0)
(-0.0226574 -0.00389095 0)
(-0.0250744 -0.00402217 0)
(-0.0273913 -0.00406439 0)
(-0.0295547 -0.00400747 0)
(3.06378e-05 2.46866e-05 0)
(-9.43109e-05 -0.000126029 0)
(-0.000502716 -0.000303745 0)
(-0.00114264 -0.000456306 0)
(-0.00196274 -0.000587464 0)
(-0.00293068 -0.000711273 0)
(-0.00403374 -0.000840635 0)
(-0.00527179 -0.000983789 0)
(-0.00664942 -0.00114379 0)
(-0.00816947 -0.00131905 0)
(-0.00982859 -0.00150429 0)
(-0.0116148 -0.00169153 0)
(-0.0135069 -0.00187105 0)
(-0.0154748 -0.00203237 0)
(-0.0174813 -0.00216507 0)
(-0.0194838 -0.00225957 0)
(-0.0214378 -0.00230762 0)
(-0.0233017 -0.00230247 0)
(3.83381e-05 2.41747e-05 0)
(-5.03845e-06 -4.56333e-05 0)
(-0.000261805 -0.000128722 0)
(-0.000688973 -0.000198273 0)
(-0.00124539 -0.000256774 0)
(-0.00190539 -0.000311474 0)
(-0.00265982 -0.000368859 0)
(-0.00350993 -0.000433077 0)
(-0.00446117 -0.000505796 0)
(-0.00551816 -0.000586515 0)
(-0.00668133 -0.000673005 0)
(-0.007945 -0.000761763 0)
(-0.00929665 -0.000848456 0)
(-0.0107172 -0.000928328 0)
(-0.0121821 -0.000996562 0)
(-0.0136621 -0.00104862 0)
(-0.0151259 -0.00108049 0)
(-0.0165442 -0.00108839 0)
(3.46546e-05 1.35522e-05 0)
(3.53711e-05 -1.04275e-05 0)
(-9.94337e-05 -3.78583e-05 0)
(-0.000338699 -6.00457e-05 0)
(-0.000654802 -7.81691e-05 0)
(-0.00103096 -9.49099e-05 0)
(-0.0014617 -0.000112567 0)
(-0.00194859 -0.000132599 0)
(-0.00249606 -0.000155629 0)
(-0.00310824 -0.000181561 0)
(-0.0037869 -0.000209739 0)
(-0.00453013 -0.000239088 0)
(-0.0053319 -0.000268254 0)
(-0.00618214 -0.000295726 0)
(-0.00706718 -0.000319949 0)
(-0.00797049 -0.000339411 0)
(-0.00887344 -0.000352709 0)
(-0.00975886 -0.000358111 0)
(1.72536e-05 3.60386e-06 0)
(2.72382e-05 -3.46146e-08 0)
(-1.22147e-05 -2.28211e-06 0)
(-8.79058e-05 -3.95225e-06 0)
(-0.000189288 -5.20101e-06 0)
(-0.000310148 -6.32222e-06 0)
(-0.00044868 -7.52582e-06 0)
(-0.000605712 -8.94276e-06 0)
(-0.000783176 -1.06319e-05 0)
(-0.000982972 -1.25946e-05 0)
(-0.00120621 -1.47878e-05 0)
(-0.00145276 -1.71361e-05 0)
(-0.00172109 -1.95408e-05 0)
(-0.00200825 -2.18895e-05 0)
(-0.00230998 -2.40632e-05 0)
(-0.00262098 -2.59484e-05 0)
(-0.00293496 -2.73757e-05 0)
(-0.00324603 -2.80506e-05 0)
(3.41497e-05 -7.90823e-05 3.37808e-23)
(0.000244249 -0.000187224 -4.35594e-23)
(0.000586945 -0.000251275 0)
(0.00100767 -0.000279027 0)
(0.00144095 -0.000281703 0)
(0.00184129 -0.000267659 3.96115e-23)
(0.00217805 -0.000243312 0)
(0.0024302 -0.000213512 0)
(0.00258352 -0.000181636 0)
(0.00262858 -0.000149768 0)
(0.00255916 -0.000118936 -2.05365e-23)
(0.00237087 -8.94847e-05 0)
(0.00205976 -6.12146e-05 0)
(0.00162178 -3.35448e-05 0)
(0.00105224 -5.68451e-06 0)
(0.000345566 2.32482e-05 1.10717e-23)
(-0.000504683 5.41435e-05 0)
(-0.00150567 8.7849e-05 0)
(-0.00266482 0.000125118 0)
(-0.00398942 0.000166551 0)
(-0.00548594 0.000212555 0)
(-0.00715948 0.000263317 0)
(-0.00901307 0.000318789 0)
(-0.011047 0.000378667 8.22097e-23)
(-0.0132583 0.00044238 -9.17554e-23)
(-0.0156401 0.000509082 1.0105e-22)
(-0.0181812 0.000577651 1.09912e-22)
(-0.0208658 0.000646695 0)
(-0.0236733 0.000714572 0)
(-0.0265783 0.000779428 -1.31822e-22)
(-0.0295507 0.00083924 -1.36804e-22)
(-0.032556 0.000891884 0)
(-0.0355561 0.00093521 0)
(-0.0385094 0.000967137 -1.41486e-22)
(-0.0413722 0.000985747 0)
(-0.0440993 0.000989383 0)
(-0.0466449 0.000976748 1.26418e-22)
(-0.0489641 0.000946985 0)
(-0.0510135 0.000899753 1.03461e-22)
(-0.0527525 0.000835243 1.75878e-22)
(-0.0541441 0.000754131 0)
(-0.055156 0.000657484 0)
(-0.0557609 0.000546792 0)
(-0.0559369 0.000424525 0)
(-0.0556669 0.000293223 0)
(-0.0549422 0.000154587 -1.12343e-22)
(-0.0537608 1.16782e-05 -1.73283e-22)
(-0.0521258 -0.000132578 -2.3619e-22)
(-0.0500461 -0.000275563 0)
(-0.0475356 -0.000414903 3.64655e-22)
(-0.0446128 -0.00054851 0)
(-0.0412998 -0.000674618 -4.90789e-22)
(-0.0376219 -0.000791787 -5.50679e-22)
(-0.0336068 -0.000898881 0)
(-0.0292841 -0.000995013 0)
(-0.0246851 -0.00107947 0)
(-0.0198428 -0.00115162 -7.47215e-22)
(-0.0147916 -0.00121084 0)
(-0.00956829 -0.00125629 0)
(-0.00421302 -0.00128655 0)
(0.00123146 -0.00129953 0)
(0.00672103 -0.00129383 0)
(0.0122051 -0.00126913 0)
(0.0176265 -0.00122509 0)
(0.0229243 -0.00116111 0)
(0.0280329 -0.00107681 6.67874e-22)
(0.0328833 -0.000972298 0)
(0.0374038 -0.000848397 0)
(0.041522 -0.000706774 -4.76372e-22)
(0.045167 -0.000550016 -4.02173e-22)
(0.0482724 -0.000381629 0)
(0.0507787 -0.000205974 2.45876e-22)
(0.0526371 -2.82465e-05 -1.66608e-22)
(0.0538123 0.000145089 0)
(0.0542789 0.000307524 1.30027e-23)
(0.0540388 0.000461089 0)
(0.0531139 0.000594316 0)
(0.0515391 0.000703237 1.85103e-22)
(0.0493699 0.000786022 0)
(0.0466799 0.000841417 -2.84157e-22)
(0.0435572 0.000869328 0)
(0.0401 0.000871081 3.52486e-22)
(0.036413 0.000849277 3.75242e-22)
(0.032602 0.000807523 3.90929e-22)
(0.0287688 0.000750094 8.00372e-22)
(0.0250067 0.000681568 -8.07574e-22)
(0.0213967 0.000606467 0)
(0.0180044 0.000528927 0)
(0.0148787 0.000452441 0)
(0.0120519 0.000379692 -7.57659e-22)
(0.00954072 0.000312489 -7.33625e-22)
(0.00734839 0.000251816 7.07664e-22)
(0.00546747 0.000197985 0)
(0.00388228 0.000150861 -6.53734e-22)
(0.00257108 0.000110125 -6.27203e-22)
(0.00150755 7.54863e-05 -6.01685e-22)
(0.000661791 4.67989e-05 0)
(1.04924e-06 2.40534e-05 0)
(-0.000509353 7.26667e-06 0)
(-0.000904683 -3.68268e-06 -5.15656e-22)
(-0.00121902 -9.20137e-06 0)
(-0.00148336 -1.00286e-05 0)
(-0.00172388 -7.16585e-06 4.7311e-22)
(-0.00196079 -1.73936e-06 0)
(-0.00220797 5.13862e-06 0)
(-0.00247324 1.24848e-05 4.46803e-22)
(-0.0027592 1.95161e-05 0)
(-0.00306428 2.56709e-05 0)
(-0.00338395 3.05941e-05 -4.29392e-22)
(-0.0037118 3.41029e-05 -4.24352e-22)
(-0.00404047 3.61475e-05 0)
(-0.00436238 3.67764e-05 4.14255e-22)
(-0.0046703 3.61073e-05 0)
(-0.00495777 3.43048e-05 -4.03314e-22)
(-0.00521936 3.15631e-05 0)
(-0.00545083 2.8092e-05 -3.91014e-22)
(-0.00564923 2.41045e-05 -3.8432e-22)
(-0.00581286 1.98067e-05 0)
(-0.0059412 1.53888e-05 0)
(-0.00603482 1.10163e-05 0)
(-0.00609522 6.82156e-06 0)
(-0.00612468 2.93339e-06 0)
(-0.0061259 -4.40144e-07 0)
(-0.00610202 -3.47875e-06 0)
(-0.00605655 -6.06832e-06 -3.23316e-22)
(-0.00599291 -8.18081e-06 3.15662e-22)
(-0.00591447 -9.83408e-06 0)
(-0.00582449 -1.10587e-05 0)
(-0.00572598 -1.18937e-05 0)
(-0.00562164 -1.2384e-05 0)
(-0.00551392 -1.2577e-05 5.61179e-22)
(-0.00540488 -1.25205e-05 0)
(-0.0052963 -1.22604e-05 -5.36758e-22)
(-0.00518965 -1.18396e-05 5.25349e-22)
(-0.00508609 -1.12967e-05 0)
(-0.00498654 -1.06656e-05 0)
(-0.00489168 -9.97591e-06 0)
(-0.00480201 -9.2521e-06 -4.84593e-22)
(-0.00471781 -8.51455e-06 -4.75478e-22)
(-0.00463926 -7.77959e-06 0)
(-0.00456641 -7.06002e-06 -4.58312e-22)
(-0.00449919 -6.36555e-06 -4.50194e-22)
(-0.00443748 -5.70329e-06 4.42344e-22)
(-0.0043811 -5.07818e-06 0)
(-0.0043298 -4.49338e-06 0)
(-0.00428332 -3.95061e-06 4.20118e-22)
(-0.00424138 -3.45048e-06 0)
(-0.00420367 -2.9927e-06 0)
(-0.00416988 -2.57629e-06 0)
(-0.00413971 -2.19976e-06 0)
(-0.00411286 -1.86122e-06 -3.86045e-22)
(-0.00408903 -1.55852e-06 -3.79505e-22)
(-0.00406793 -1.2893e-06 0)
(-0.0040493 -1.05109e-06 -3.66589e-22)
(-0.00403287 -8.41367e-07 0)
(-0.0040184 -6.5757e-07 0)
(-0.00400568 -4.97149e-07 -3.4748e-22)
(-0.0039945 -3.57572e-07 0)
(-0.00398468 -2.3627e-07 -3.34833e-22)
(-0.00397604 -1.30542e-07 0)
(-0.00396845 -3.7331e-08 0)
(-0.00396181 4.71015e-08 -3.15906e-22)
(-0.00395603 1.27522e-07 0)
(-0.0039511 2.10214e-07 -3.03277e-22)
(-0.00394708 3.03996e-07 0)
(-0.00394413 4.19664e-07 0)
(-0.0039425 5.68133e-07 0)
(-0.00394256 7.55683e-07 2.77826e-22)
(-0.00394472 9.71462e-07 0)
(-0.00394936 1.1726e-06 -2.64813e-22)
(-0.00395656 1.38925e-06 0)
(-0.00396575 1.65735e-06 0)
(-0.00397546 1.74914e-06 0)
(-0.00398279 1.71358e-06 0)
(-0.00398308 1.16391e-06 0)
(-0.00396958 -5.83608e-08 0)
(-0.00393112 -2.57623e-06 0)
(-0.00385502 -7.72216e-06 4.09934e-22)
(-0.00373754 -9.05213e-06 0)
(-0.00331463 -6.75373e-05 0)
(5.65498e-05 -0.000478905 -1.09813e-22)
(0.000418517 -0.00111374 1.43191e-22)
(0.000939555 -0.00146243 0)
(0.00152318 -0.00157385 -9.51948e-23)
(0.00206295 -0.00150158 0)
(0.00248107 -0.00129435 -4.22104e-23)
(0.00272048 -0.000992338 8.29701e-23)
(0.00273775 -0.000626634 7.66432e-23)
(0.00249923 -0.000219914 0)
(0.00197864 0.000212713 6.08701e-23)
(0.00115457 0.000662141 2.2013e-23)
(8.52751e-06 0.00112362 0)
(-0.00147625 0.00159573 0)
(-0.00331584 0.00207925 0)
(-0.00552604 0.00257608 0)
(-0.00812235 0.00308835 -1.17096e-23)
(-0.0111195 0.00361767 0)
(-0.0145305 0.00416456 4.03363e-23)
(-0.0183657 0.00472791 0)
(-0.0226315 0.00530473 0)
(-0.0273287 0.00588992 -9.19943e-23)
(-0.0324511 0.00647623 0)
(-0.0379842 0.00705434 1.29107e-22)
(-0.0439041 0.0076131 -8.37832e-23)
(-0.0501765 0.00813978 9.29779e-23)
(-0.0567563 0.00862048 -1.01805e-22)
(-0.0635876 0.00904066 -1.10096e-22)
(-0.0706042 0.00938561 0)
(-0.07773 0.00964107 0)
(-0.084881 0.00979385 1.299e-22)
(-0.0919665 0.00983234 -1.23609e-22)
(-0.0988909 0.00974712 0)
(-0.105557 0.00953136 0)
(-0.111865 0.00918119 1.37152e-22)
(-0.117721 0.0086959 0)
(-0.123032 0.00807808 0)
(-0.127711 0.00733352 -1.21808e-22)
(-0.131683 0.00647109 0)
(-0.134877 0.0055024 1.09215e-22)
(-0.137236 0.00444126 -1.6952e-22)
(-0.138712 0.00330308 0)
(-0.139272 0.00210452 0)
(-0.138889 0.000863806 -1.34887e-22)
(-0.137553 -0.000400163 -3.91194e-23)
(-0.135266 -0.00166881 6.51824e-23)
(-0.132039 -0.00292447 -6.73382e-23)
(-0.127892 -0.00415077 1.69882e-22)
(-0.122855 -0.00533325 6.51691e-22)
(-0.116964 -0.0064595 -5.46747e-22)
(-0.110261 -0.00751927 -3.62757e-22)
(-0.102793 -0.0085044 0)
(-0.09461 -0.0094088 4.94379e-22)
(-0.0857663 -0.0102282 -5.06709e-22)
(-0.0763165 -0.0109597 0)
(-0.0663168 -0.0116016 0)
(-0.0558242 -0.0121525 0)
(-0.044897 -0.0126112 7.8356e-22)
(-0.0335947 -0.0129758 0)
(-0.0219794 -0.0132433 -1.66892e-21)
(-0.0101174 -0.0134088 0)
(0.00191929 -0.0134662 -1.73815e-21)
(0.0140562 -0.0134075 0)
(0.0262075 -0.0132244 1.63697e-21)
(0.0382767 -0.0129091 0)
(0.0501593 -0.012454 -1.45534e-21)
(0.0617413 -0.0118526 6.4541e-22)
(0.0728992 -0.0111005 0)
(0.0835012 -0.0101964 1.07526e-21)
(0.0934087 -0.00914361 4.86617e-22)
(0.10248 -0.00795019 4.08721e-22)
(0.110572 -0.00663004 0)
(0.117548 -0.00520302 2.08861e-22)
(0.123277 -0.00369503 1.67565e-22)
(0.127646 -0.00213796 0)
(0.130562 -0.00056916 -1.30471e-23)
(0.131958 0.000974764 -1.43423e-22)
(0.131791 0.00244924 0)
(0.130073 0.00381151 -1.85483e-22)
(0.126852 0.00502473 0)
(0.122217 0.00605685 8.62904e-22)
(0.1163 0.00688211 0)
(0.109273 0.00748355 -1.06655e-21)
(0.101343 0.0078546 -3.82302e-22)
(0.0927413 0.00799969 3.86379e-22)
(0.0837136 0.00793387 7.89914e-22)
(0.0745072 0.00768147 -7.97726e-22)
(0.0653579 0.00727395 0)
(0.0564784 0.00674709 0)
(0.0480484 0.00613787 0)
(0.0402088 0.00548161 2.39418e-21)
(0.0330587 0.00480956 7.9451e-22)
(0.026657 0.00414747 -7.71775e-22)
(0.0210262 0.00351521 0)
(0.0161573 0.00292727 -6.86516e-22)
(0.012016 0.00239395 6.9593e-22)
(0.0085479 0.00192255 6.70602e-22)
(0.00568289 0.0015182 0)
(0.00333957 0.00118401 0)
(0.00142943 0.000920732 0)
(-0.000138257 0.000726107 5.82525e-22)
(-0.00145147 0.000594535 0)
(-0.00259023 0.00051723 -1.08468e-21)
(-0.00362237 0.000483136 -1.59221e-21)
(-0.0046008 0.000480245 1.03536e-21)
(-0.0055627 0.00049687 0)
(-0.00653026 0.000522664 4.95603e-22)
(-0.00751263 0.000549256 0)
(-0.00850863 0.000570488 9.72378e-22)
(-0.00950951 0.00058232 -4.76867e-22)
(-0.0105018 0.000582547 -4.71558e-22)
(-0.0114693 0.000570447 0)
(-0.0123956 0.000546419 -1.39412e-21)
(-0.0132649 0.000511663 9.16172e-22)
(-0.0140633 0.00046791 4.54172e-22)
(-0.0147796 0.000417198 0)
(-0.0154055 0.000361692 4.40462e-22)
(-0.0159358 0.000303536 1.2967e-21)
(-0.0163684 0.000244742 0)
(-0.016704 0.0001871 8.33031e-22)
(-0.0169456 0.000132124 8.16863e-22)
(-0.0170987 8.1018e-05 8.00286e-22)
(-0.01717 3.46941e-05 0)
(-0.0171675 -6.12951e-06 0)
(-0.0171001 -4.13851e-05 0)
(-0.0169769 -7.0927e-05 -3.66491e-22)
(-0.0168069 -9.48739e-05 -3.57507e-22)
(-0.0165991 -0.000113527 0)
(-0.0163618 -0.000127305 -6.83589e-22)
(-0.0161027 -0.000136703 -6.68217e-22)
(-0.0158289 -0.000142254 0)
(-0.0155463 -0.000144507 -6.3805e-22)
(-0.0152603 -0.000143996 -1.25084e-21)
(-0.0149755 -0.000141227 6.11273e-22)
(-0.0146955 -0.000136669 6.00764e-22)
(-0.0144233 -0.00013074 0)
(-0.0141613 -0.000123808 0)
(-0.0139112 -0.000116192 0)
(-0.0136743 -0.000108158 5.54056e-22)
(-0.0134515 -9.99293e-05 -5.45529e-22)
(-0.0132431 -9.16858e-05 -1.07024e-21)
(-0.0130494 -8.35707e-05 5.2519e-22)
(-0.0128702 -7.56945e-05 -5.17398e-22)
(-0.0127053 -6.81407e-05 -5.07625e-22)
(-0.0125541 -6.09691e-05 0)
(-0.0124163 -5.42204e-05 0)
(-0.012291 -4.79198e-05 4.83862e-22)
(-0.0121776 -4.20795e-05 0)
(-0.0120753 -3.67015e-05 0)
(-0.0119833 -3.178e-05 -9.20832e-22)
(-0.0119009 -2.73028e-05 0)
(-0.0118274 -2.32527e-05 -4.45786e-22)
(-0.0117618 -1.96092e-05 4.38146e-22)
(-0.0117035 -1.63489e-05 0)
(-0.0116519 -1.34469e-05 -4.23998e-22)
(-0.0116061 -1.08768e-05 0)
(-0.0115657 -8.61178e-06 0)
(-0.0115299 -6.62447e-06 4.02429e-22)
(-0.0114984 -4.88735e-06 -7.90784e-22)
(-0.0114705 -3.37222e-06 3.8826e-22)
(-0.0114458 -2.04924e-06 0)
(-0.011424 -8.84929e-07 0)
(-0.0114047 1.61027e-07 -3.67006e-22)
(-0.0113878 1.14004e-06 0)
(-0.0113732 2.11919e-06 -3.52736e-22)
(-0.0113609 3.18458e-06 0)
(-0.0113513 4.43732e-06 0)
(-0.011345 5.97681e-06 0)
(-0.0113426 7.86419e-06 -3.23927e-22)
(-0.0113451 1.00586e-05 0)
(-0.0113529 1.23358e-05 3.09129e-22)
(-0.0113656 1.43219e-05 0)
(-0.0113813 1.53734e-05 0)
(-0.0113955 1.42418e-05 -5.71302e-22)
(-0.0113999 9.65662e-06 5.54678e-22)
(-0.011382 -4.12294e-07 0)
(-0.0113236 -1.82596e-05 0)
(-0.0111977 -4.74857e-05 0)
(-0.0109754 -9.37335e-05 -1.4458e-21)
(-0.0106316 -0.000171632 0)
(-0.00979919 -0.000354339 8.83061e-22)
(5.00253e-05 -0.000932405 -8.96251e-24)
(0.000331721 -0.00204554 -2.04294e-22)
(0.000667589 -0.00254404 0)
(0.000951021 -0.00255884 1.99597e-22)
(0.0010734 -0.00220242 0)
(0.000954126 -0.00156808 0)
(0.000531053 -0.000730056 8.67404e-24)
(-0.000246832 0.000254696 -7.68534e-23)
(-0.00142252 0.00134478 -7.86023e-23)
(-0.0030334 0.00251144 -6.06142e-23)
(-0.00511279 0.00373613 0)
(-0.00769102 0.00500806 0)
(-0.010796 0.00632167 4.13821e-23)
(-0.0144532 0.00767438 6.00624e-23)
(-0.0186854 0.00906462 -3.56893e-23)
(-0.0235111 0.01049 0)
(-0.028944 0.0119458 1.82171e-23)
(-0.0349908 0.0134239 -3.88146e-23)
(-0.0416491 0.0149115 0)
(-0.0489062 0.0163912 1.12123e-22)
(-0.0567367 0.0178407 8.72672e-23)
(-0.0651013 0.0192333 -1.82614e-22)
(-0.0739458 0.0205384 -1.21311e-22)
(-0.0832011 0.0217228 0)
(-0.092783 0.022752 2.95459e-22)
(-0.102594 0.0235915 3.33253e-22)
(-0.112524 0.0242086 0)
(-0.122454 0.0245738 4.0546e-22)
(-0.13226 0.024662 0)
(-0.141811 0.0244542 4.68063e-22)
(-0.15098 0.0239376 2.36221e-22)
(-0.159641 0.0231068 0)
(-0.167673 0.0219638 0)
(-0.174965 0.0205176 0)
(-0.181415 0.0187844 0)
(-0.186935 0.0167861 0)
(-0.191449 0.0145503 0)
(-0.194894 0.0121087 4.85364e-22)
(-0.197221 0.00949639 -6.41528e-22)
(-0.198398 0.0067503 0)
(-0.198403 0.00390871 0)
(-0.197227 0.00101081 0)
(-0.194877 -0.00190427 -6.99301e-23)
(-0.191374 -0.00479914 3.648e-23)
(-0.18674 -0.0076399 -5.15167e-23)
(-0.181012 -0.0103962 2.61354e-22)
(-0.174231 -0.0130415 2.07432e-22)
(-0.166444 -0.0155535 -3.93624e-22)
(-0.157704 -0.0179139 6.82803e-23)
(-0.148069 -0.0201083 -5.70703e-22)
(-0.137597 -0.0221267 0)
(-0.126349 -0.0239624 -8.22219e-22)
(-0.114387 -0.0256119 6.63402e-23)
(-0.101772 -0.027074 0)
(-0.0885649 -0.0283489 0)
(-0.0748255 -0.0294373 1.28899e-21)
(-0.0606137 -0.0303392 0)
(-0.0459897 -0.0310533 0)
(-0.0310151 -0.0315756 -1.48205e-21)
(-0.0157556 -0.0318991 -3.21804e-21)
(-0.000281929 -0.0320133 1.6997e-21)
(0.0153339 -0.0319034 0)
(0.0310091 -0.0315508 -1.59483e-21)
(0.0466456 -0.0309363 0)
(0.0621356 -0.0300413 -1.28387e-21)
(0.0773604 -0.0288485 -1.29159e-21)
(0.0921889 -0.0273437 2.21171e-21)
(0.106478 -0.0255178 9.12038e-22)
(0.120073 -0.0233685 0)
(0.132813 -0.0209021 -1.35785e-21)
(0.144527 -0.0181349 0)
(0.155043 -0.0150944 -1.18425e-21)
(0.164192 -0.01182 -4.52e-22)
(0.171807 -0.00836264 -1.61156e-22)
(0.177737 -0.00478519 -1.16417e-22)
(0.181847 -0.00116425 5.11676e-22)
(0.184025 0.00241613 0)
(0.184187 0.00586178 0)
(0.182305 0.00907989 -1.00138e-21)
(0.1784 0.0119821 -1.69081e-21)
(0.172547 0.0144872 0)
(0.164882 0.016527 6.59201e-22)
(0.1556 0.0180514 0)
(0.144954 0.0190335 -2.22414e-21)
(0.133244 0.0194725 1.4937e-23)
(0.120806 0.0193947 -2.77845e-24)
(0.107987 0.0188511 1.53228e-21)
(0.095134 0.017913 0)
(0.082567 0.0166655 -1.50041e-21)
(0.070564 0.0151991 -2.94505e-23)
(0.0593484 0.0136025 0)
(0.0490815 0.0119559 0)
(0.0398619 0.0103276 0)
(0.03173 0.00877215 1.36984e-21)
(0.0246751 0.00733154 0)
(0.0186439 0.00603692 0)
(0.0135496 0.00491017 0)
(0.00928136 0.00396458 0)
(0.00571244 0.00320458 0)
(0.00270996 0.00262518 1.12628e-21)
(0.000143764 0.00221198 0)
(-0.0021054 0.00194231 1.08319e-21)
(-0.00413948 0.00178759 1.05542e-21)