/*--------------------------------*- C++ -*----------------------------------*\
  =========                 |
  \\      /  F ield         | OpenFOAM: The Open Source CFD Toolbox
   \\    /   O peration     | Website:  https://openfoam.org
    \\  /    A nd           | Version:  8
     \\/     M anipulation  |
\*---------------------------------------------------------------------------*/
FoamFile
{
    version     2.0;
    format      ascii;
    class       volScalarField;
    location    "0.8";
    object      p;
}
// * * * * * * * * * * * * * * * * * * * * * * * * * * * * * * * * * * * * * //

dimensions      [0 2 -2 0 0 0 0];

internalField   nonuniform List<scalar> 
12225
(
-0.00269079
-0.00266199
-0.00263373
-0.00261205
-0.00260223
-0.00260665
-0.00262744
-0.00266664
-0.00272661
-0.00281041
-0.0029224
-0.00306942
-0.00326293
-0.00352348
-0.00388945
-0.00443356
-0.00536188
-0.00751366
-0.00269054
-0.00266481
-0.00263945
-0.0026204
-0.00261297
-0.00261963
-0.00264257
-0.00268385
-0.00274586
-0.00283161
-0.00294543
-0.00309392
-0.00328786
-0.00354578
-0.00389957
-0.00440465
-0.00516959
-0.00661773
-0.00269142
-0.00266848
-0.00264633
-0.00263029
-0.00262562
-0.00263485
-0.00266022
-0.0027038
-0.00276792
-0.00285554
-0.00297075
-0.00311965
-0.00331173
-0.00356216
-0.00389405
-0.00433996
-0.00491737
-0.00582519
-0.0026937
-0.00267259
-0.00265315
-0.00263983
-0.0026377
-0.00264928
-0.0026768
-0.00272228
-0.00278797
-0.00287662
-0.0029919
-0.00313906
-0.00332568
-0.00356269
-0.00386386
-0.00424204
-0.00467169
-0.00524187
-0.00269722
-0.00267714
-0.00265987
-0.00264899
-0.00264915
-0.00266281
-0.00269215
-0.0027391
-0.00280574
-0.00289451
-0.00300847
-0.0031517
-0.00332953
-0.00354838
-0.00381369
-0.00412437
-0.00444169
-0.00479712
-0.00270178
-0.00268211
-0.00266655
-0.00265783
-0.00266005
-0.00267555
-0.00270638
-0.00275437
-0.00282134
-0.00290931
-0.0030206
-0.00315795
-0.00332427
-0.00352186
-0.00374959
-0.00399775
-0.00422752
-0.00444221
-0.00270714
-0.00268739
-0.00267311
-0.00266626
-0.00267027
-0.00268733
-0.00271932
-0.00276787
-0.00283452
-0.00292078
-0.00302813
-0.0031579
-0.00331072
-0.00348545
-0.00367646
-0.00386972
-0.00403186
-0.0041561
-0.00271299
-0.00269279
-0.00267938
-0.00267411
-0.00267963
-0.00269793
-0.00273069
-0.0027793
-0.00284495
-0.00292862
-0.00303089
-0.00315175
-0.00328987
-0.00344151
-0.00359844
-0.00374561
-0.00385702
-0.00392519
-0.00271891
-0.00269806
-0.00268517
-0.00268117
-0.0026879
-0.0027071
-0.00274021
-0.00278836
-0.00285238
-0.00293264
-0.00302893
-0.00313999
-0.00326297
-0.00339244
-0.00351914
-0.00362907
-0.00370355
-0.00373796
-0.00272443
-0.00270287
-0.00269023
-0.00268722
-0.00269486
-0.00271461
-0.00274765
-0.00279484
-0.00285662
-0.00293282
-0.00302245
-0.0031233
-0.00323143
-0.00334054
-0.00344144
-0.00352229
-0.0035706
-0.00358514
-0.002729
-0.00270679
-0.00269427
-0.00269201
-0.00270026
-0.00272021
-0.00275277
-0.00279853
-0.00285755
-0.00292918
-0.00301181
-0.00310249
-0.00319663
-0.00328771
-0.00336731
-0.00342603
-0.00345614
-0.00345925
-0.0027318
-0.00270915
-0.00269671
-0.00269495
-0.00270351
-0.00272332
-0.00275509
-0.00279915
-0.00285527
-0.00292243
-0.00299858
-0.00308034
-0.00316286
-0.00323976
-0.0033036
-0.00334701
-0.00336533
-0.00336211
-0.00273269
-0.00271037
-0.002698
-0.00269664
-0.00270536
-0.00272483
-0.00275554
-0.00279761
-0.00285056
-0.00291307
-0.00298277
-0.00305608
-0.00312812
-0.00319298
-0.00324429
-0.00327648
-0.00328703
-0.00327954
-0.00273077
-0.00270961
-0.00269756
-0.00269658
-0.00270532
-0.00272411
-0.00275328
-0.00279273
-0.00284178
-0.00289887
-0.00296145
-0.00302588
-0.00308751
-0.00314107
-0.00318135
-0.00320437
-0.00320902
-0.00319838
-0.00272407
-0.00270514
-0.00269405
-0.00269353
-0.00270209
-0.00271979
-0.0027468
-0.00278291
-0.00282726
-0.00287821
-0.00293316
-0.00298861
-0.00304032
-0.00308375
-0.00311475
-0.00313049
-0.00313048
-0.00311707
-0.0027098
-0.00269459
-0.00268559
-0.00268578
-0.00269396
-0.00271006
-0.00273418
-0.00276606
-0.00280482
-0.00284886
-0.00289573
-0.00294223
-0.0029846
-0.00301902
-0.00304212
-0.00305177
-0.00304743
-0.00303057
-0.00268465
-0.00267511
-0.00266982
-0.00267123
-0.00267883
-0.00269269
-0.00271297
-0.00273948
-0.00277148
-0.00280753
-0.0028455
-0.00288258
-0.00291555
-0.00294115
-0.00295652
-0.00295975
-0.00294996
-0.00292764
-0.00264594
-0.00264421
-0.00264439
-0.00264758
-0.00265428
-0.002665
-0.00268011
-0.00269961
-0.00272297
-0.00274909
-0.00277621
-0.00280197
-0.00282367
-0.00283846
-0.00284381
-0.00283777
-0.00281901
-0.00278721
-0.00259498
-0.00260246
-0.00260892
-0.00261368
-0.00261838
-0.00262419
-0.00263176
-0.00264134
-0.00265276
-0.0026653
-0.00267769
-0.0026881
-0.00269431
-0.00269393
-0.00268464
-0.00266439
-0.00263127
-0.00258447
-0.00255687
-0.00257161
-0.0025827
-0.00258799
-0.00258995
-0.00259
-0.00258885
-0.00258682
-0.00258392
-0.00257974
-0.00257342
-0.0025637
-0.00254898
-0.00252749
-0.00249754
-0.00245753
-0.00240572
-0.00234085
-0.00253835
-0.00255675
-0.00256995
-0.00257522
-0.00257526
-0.0025714
-0.00256416
-0.00255379
-0.00254029
-0.00252337
-0.0025024
-0.00247646
-0.00244441
-0.00240496
-0.0023569
-0.00229909
-0.00223021
-0.00214925
-0.00253324
-0.00255294
-0.00256686
-0.00257214
-0.00257122
-0.00256497
-0.00255364
-0.00253728
-0.00251577
-0.00248881
-0.00245586
-0.00241626
-0.00236919
-0.00231377
-0.00224922
-0.00217488
-0.00208994
-0.00199373
-0.00253699
-0.00255644
-0.0025704
-0.00257609
-0.00257524
-0.00256815
-0.00255471
-0.00253473
-0.00250794
-0.00247391
-0.00243217
-0.00238213
-0.00232322
-0.00225486
-0.00217662
-0.00208824
-0.00198945
-0.00188002
-0.00254538
-0.00256382
-0.00257775
-0.00258446
-0.00258466
-0.00257803
-0.00256417
-0.00254262
-0.00251293
-0.00247455
-0.00242695
-0.0023696
-0.00230201
-0.00222383
-0.00213486
-0.00203515
-0.00192487
-0.00180428
-0.00255519
-0.00257252
-0.00258682
-0.0025952
-0.00259723
-0.00259208
-0.00257905
-0.0025575
-0.00252677
-0.00248621
-0.00243519
-0.00237314
-0.00229962
-0.00221437
-0.00211736
-0.00200882
-0.00188926
-0.00175938
-0.00256429
-0.00258092
-0.00259626
-0.00260689
-0.00261133
-0.00260832
-0.00259698
-0.0025765
-0.00254608
-0.00250494
-0.00245233
-0.00238762
-0.00231034
-0.00222025
-0.00211741
-0.00200215
-0.00187519
-0.00173761
-0.00257145
-0.00258818
-0.00260534
-0.00261871
-0.0026259
-0.00262544
-0.00261631
-0.0025976
-0.0025684
-0.00252779
-0.00247491
-0.00240904
-0.00232963
-0.00223642
-0.00212946
-0.00200916
-0.0018763
-0.00173226
-0.00257611
-0.00259404
-0.00261385
-0.00263034
-0.00264053
-0.00264286
-0.00263628
-0.0026198
-0.00259243
-0.00255315
-0.00250096
-0.00243502
-0.00235469
-0.00225963
-0.00214985
-0.00202576
-0.00188816
-0.00173856
-0.00257815
-0.00259852
-0.00262173
-0.00264158
-0.00265489
-0.00266013
-0.00265626
-0.0026423
-0.00261718
-0.00257977
-0.00252896
-0.00246376
-0.00238341
-0.00228746
-0.00217585
-0.00204893
-0.00190749
-0.00175306
-0.00257821
-0.0026015
-0.0026278
-0.00265048
-0.00266635
-0.00267396
-0.00267235
-0.00266054
-0.00263741
-0.00260175
-0.00255235
-0.0024881
-0.00240813
-0.00231189
-0.00219923
-0.00207047
-0.00192633
-0.00176834
0.000536219
0.00054843
0.000550582
0.00053463
0.000500142
0.000448042
0.000379377
0.000295362
0.000197324
8.65729e-05
-3.56953e-05
-0.000168454
-0.000310848
-0.000462187
-0.000621913
-0.000789556
-0.00096468
-0.00114681
-0.00133539
-0.0015297
-0.00172879
-0.00193144
-0.0021361
-0.00234084
-0.00254335
-0.00274087
-0.00293021
-0.00310778
-0.00326956
-0.00341115
-0.00352787
-0.00361479
-0.00366685
-0.00367897
-0.00364621
-0.00356388
-0.00342775
-0.00323421
-0.00298043
-0.00266453
-0.00228572
-0.00184444
-0.00134247
-0.000782929
-0.00017032
0.000489711
0.00118976
0.00192158
0.00267585
0.0034424
0.00421049
0.00496906
0.00570695
0.0064132
0.00707725
0.00768917
0.00823981
0.00872098
0.00912554
0.00944744
0.0096818
0.00982485
0.00987396
0.00982773
0.00968575
0.00944865
0.00911832
0.00869779
0.00819123
0.0076041
0.00694314
0.00621652
0.00543379
0.00460594
0.00374534
0.00286556
0.00198117
0.00110739
0.000259602
-0.000546992
-0.00129818
-0.00198128
-0.00258553
-0.00310275
-0.00352772
-0.00385845
-0.00409622
-0.00424543
-0.00431325
-0.00430904
-0.00424373
-0.00412908
-0.00397696
-0.00379879
-0.00360497
-0.00340461
-0.00320539
-0.00301351
-0.00283384
-0.00267001
-0.00252455
-0.00239895
-0.00229369
-0.0022083
-0.00214144
-0.002091
-0.00205434
-0.00202852
-0.00201054
-0.00199758
-0.00198711
-0.00197705
-0.00196576
-0.00195202
-0.00193506
-0.00191446
-0.00189011
-0.00186215
-0.00183093
-0.00179697
-0.00176087
-0.00172327
-0.0016849
-0.00164643
-0.00160848
-0.00157159
-0.00153625
-0.0015028
-0.00147153
-0.00144259
-0.00141607
-0.00139195
-0.00137017
-0.00135058
-0.00133302
-0.00131728
-0.00130314
-0.00129037
-0.00127875
-0.00126804
-0.00125804
-0.00124855
-0.0012394
-0.00123043
-0.00122149
-0.00121248
-0.00120328
-0.0011938
-0.00118399
-0.00117377
-0.0011631
-0.00115195
-0.0011403
-0.00112814
-0.00111545
-0.00110221
-0.00108845
-0.00107416
-0.00105937
-0.00104407
-0.00102829
-0.00101202
-0.000995276
-0.000978057
-0.000960353
-0.000942141
-0.000923389
-0.000904046
-0.000884046
-0.000863307
-0.000841739
-0.000819242
-0.000795707
-0.000771092
-0.000745346
-0.0007185
-0.000690661
-0.000662339
-0.000635786
-0.000599544
0.000548026
0.000559844
0.000561595
0.000546264
0.000514515
0.000467689
0.000406783
0.000332744
0.000246557
0.000149178
4.14695e-05
-7.58244e-05
-0.000202097
-0.000336868
-0.00047975
-0.000630423
-0.000788585
-0.000953905
-0.00112596
-0.0013042
-0.00148784
-0.0016759
-0.00186704
-0.00205963
-0.00225163
-0.0024406
-0.00262369
-0.0027976
-0.00295862
-0.00310262
-0.00322515
-0.00332144
-0.00338652
-0.00341533
-0.00340285
-0.00334424
-0.003235
-0.00307119
-0.00284957
-0.00256778
-0.00222454
-0.00181975
-0.00135463
-0.000831791
-0.000255122
0.000369917
0.00103675
0.00173729
0.00246243
0.0032022
0.003946
0.00468284
0.00540158
0.00609123
0.00674118
0.00734139
0.00788262
0.00835655
0.00875593
0.00907459
0.00930755
0.00945096
0.00950204
0.00945915
0.00932185
0.00909095
0.00876847
0.00835748
0.00786226
0.00728834
0.00664262
0.00593337
0.00517031
0.00436457
0.00352862
0.00267609
0.00182154
0.000980092
0.00016698
-0.000603119
-0.00131629
-0.00196081
-0.00252679
-0.00300703
-0.00339739
-0.00369699
-0.00390817
-0.0040362
-0.00408888
-0.00407593
-0.00400827
-0.00389729
-0.00375422
-0.00358955
-0.00341262
-0.0032314
-0.00305244
-0.00288094
-0.00272088
-0.00257517
-0.00244583
-0.00233404
-0.00224016
-0.00216377
-0.00210373
-0.00205826
-0.0020251
-0.00200172
-0.00198551
-0.00197396
-0.00196484
-0.00195624
-0.00194661
-0.0019348
-0.00192001
-0.00190178
-0.00187994
-0.00185455
-0.00182588
-0.00179438
-0.00176057
-0.00172509
-0.00168858
-0.00165169
-0.00161504
-0.00157916
-0.00154455
-0.00151158
-0.00148054
-0.00145163
-0.00142496
-0.00140054
-0.00137834
-0.00135825
-0.00134012
-0.00132378
-0.00130902
-0.00129563
-0.00128339
-0.00127209
-0.00126154
-0.00125153
-0.00124191
-0.0012325
-0.00122318
-0.00121382
-0.00120431
-0.00119457
-0.00118452
-0.0011741
-0.00116327
-0.00115199
-0.00114022
-0.00112795
-0.00111517
-0.00110188
-0.00108807
-0.00107376
-0.00105894
-0.00104363
-0.00102783
-0.00101156
-0.000994806
-0.000977581
-0.000959871
-0.000941656
-0.000922904
-0.000903569
-0.000883591
-0.000862898
-0.000841407
-0.000819035
-0.000795716
-0.000771379
-0.000746018
-0.000719697
-0.000692571
-0.000665214
-0.00063981
-0.000605165
0.000639967
0.000644783
0.0006396
0.000619424
0.000585408
0.000538984
0.000481085
0.000412474
0.000333882
0.000245971
0.000149287
4.42517e-05
-6.88428e-05
-0.000189818
-0.000318583
-0.000455108
-0.000599375
-0.000751341
-0.000910878
-0.00107773
-0.00125143
-0.00143132
-0.00161638
-0.0018053
-0.00199636
-0.0021874
-0.00237581
-0.0025585
-0.00273187
-0.00289186
-0.00303394
-0.0031532
-0.00324443
-0.00330221
-0.00332108
-0.00329569
-0.00322098
-0.00309241
-0.00290612
-0.00265917
-0.00234971
-0.0019772
-0.00154245
-0.00104765
-0.000496404
0.000105939
0.000752624
0.00143556
0.00214553
0.00287238
0.00360531
0.00433308
0.00504433
0.00572783
0.00637276
0.00696894
0.00750698
0.00797849
0.00837616
0.00869384
0.00892656
0.00907052
0.00912303
0.00908246
0.00894836
0.00872157
0.00840417
0.00799927
0.00751116
0.00694542
0.00630899
0.00561027
0.00485913
0.00406688
0.00324626
0.00241119
0.00157654
0.000757733
-2.97362e-05
-0.000770862
-0.00145212
-0.00206155
-0.00258989
-0.0030307
-0.00338085
-0.0036407
-0.00381398
-0.00390746
-0.00393033
-0.00389349
-0.00380868
-0.00368769
-0.00354165
-0.0033805
-0.00321264
-0.00304486
-0.00288237
-0.00272904
-0.00258764
-0.00246008
-0.00234759
-0.00225083
-0.0021699
-0.0021043
-0.00205301
-0.00201446
-0.00198671
-0.00196756
-0.00195473
-0.00194604
-0.00193949
-0.00193335
-0.00192621
-0.00191697
-0.00190486
-0.00188938
-0.00187032
-0.00184767
-0.00182166
-0.00179266
-0.00176116
-0.00172776
-0.00169305
-0.00165768
-0.00162226
-0.00158734
-0.0015534
-0.00152086
-0.00149002
-0.00146111
-0.00143426
-0.00140953
-0.0013869
-0.0013663
-0.0013476
-0.00133064
-0.00131525
-0.00130122
-0.00128837
-0.00127647
-0.00126535
-0.00125481
-0.00124469
-0.00123483
-0.0012251
-0.00121537
-0.00120554
-0.00119551
-0.00118521
-0.00117458
-0.00116356
-0.00115211
-0.00114022
-0.00112784
-0.00111498
-0.00110161
-0.00108776
-0.0010734
-0.00105855
-0.00104321
-0.0010274
-0.00101111
-0.000994349
-0.000977117
-0.000959401
-0.000941185
-0.000922439
-0.000903121
-0.00088318
-0.000862551
-0.000841165
-0.000818955
-0.000795863
-0.000771848
-0.000746923
-0.000721181
-0.000694805
-0.000668383
-0.000644301
-0.000610564
0.000813884
0.000804106
0.000784473
0.000753725
0.000712612
0.000661998
0.000602539
0.000534778
0.000459157
0.000376
0.000285493
0.000187681
8.24706e-05
-3.03552e-05
-0.000151115
-0.000280196
-0.000418008
-0.000564939
-0.0007213
-0.000887262
-0.0010628
-0.00124761
-0.00144106
-0.00164214
-0.00184933
-0.00206065
-0.00227348
-0.00248464
-0.00269031
-0.00288604
-0.0030668
-0.00322705
-0.00336084
-0.00346195
-0.00352404
-0.00354091
-0.00350665
-0.00341595
-0.00326428
-0.00304815
-0.00276532
-0.00241499
-0.00199783
-0.00151589
-0.000973117
-0.000375326
0.000270274
0.000955111
0.00166941
0.00240246
0.00314286
0.00387882
0.00459849
0.00529023
0.00594287
0.00654598
0.00709007
0.0075667
0.0079686
0.00828974
0.00852533
0.00867176
0.00872655
0.00868834
0.00855679
0.00833268
0.00801804
0.00761593
0.00713057
0.00656742
0.00593335
0.00523673
0.00448748
0.0036971
0.00287862
0.00204641
0.00121594
0.000403315
-0.000375187
-0.00110379
-0.00176782
-0.00235478
-0.00285508
-0.00326228
-0.00357359
-0.00379024
-0.00391732
-0.00396338
-0.00393968
-0.00385926
-0.00373589
-0.00358299
-0.00341275
-0.00323551
-0.00305939
-0.00289035
-0.00273235
-0.0025878
-0.00245798
-0.00234347
-0.00224442
-0.00216067
-0.00209179
-0.00203701
-0.00199517
-0.00196475
-0.0019439
-0.00193061
-0.00192277
-0.00191838
-0.00191563
-0.00191293
-0.00190898
-0.00190274
-0.00189347
-0.00188069
-0.00186418
-0.00184391
-0.0018201
-0.00179307
-0.00176333
-0.00173143
-0.00169799
-0.00166366
-0.00162904
-0.00159471
-0.00156116
-0.00152883
-0.00149805
-0.00146906
-0.00144202
-0.001417
-0.00139401
-0.00137298
-0.00135382
-0.00133638
-0.00132048
-0.00130596
-0.00129261
-0.00128024
-0.00126866
-0.0012577
-0.00124718
-0.00123695
-0.00122688
-0.00121685
-0.00120674
-0.00119647
-0.00118595
-0.00117513
-0.00116394
-0.00115236
-0.00114034
-0.00112787
-0.00111492
-0.00110149
-0.00108757
-0.00107317
-0.00105828
-0.00104292
-0.00102708
-0.00101078
-0.000994007
-0.000976767
-0.000959049
-0.000940837
-0.000922104
-0.000902815
-0.000882922
-0.000862371
-0.000841103
-0.00081906
-0.000796196
-0.000772488
-0.000747963
-0.000722728
-0.00069697
-0.000671247
-0.00064785
-0.000615273
0.00104819
0.00101815
0.000978205
0.000932469
0.000880713
0.000822747
0.000758703
0.000688689
0.000612686
0.000530537
0.000441948
0.000346479
0.000243547
0.00013243
1.22986e-05
-0.000117759
-0.000258687
-0.000411407
-0.000576751
-0.000755387
-0.000947737
-0.00115389
-0.0013735
-0.00160571
-0.00184907
-0.00210143
-0.00235988
-0.00262074
-0.00287953
-0.00313096
-0.00336905
-0.00358718
-0.00377827
-0.00393497
-0.00404983
-0.00411564
-0.0041256
-0.00407364
-0.00395469
-0.00376489
-0.00350186
-0.00316477
-0.00275433
-0.00227318
-0.00172603
-0.00111925
-0.000460727
0.000240164
0.000972838
0.00172575
0.00248672
0.00324325
0.00398282
0.00469327
0.00536304
0.00598144
0.00653884
0.00702681
0.00743822
0.00776723
0.00800934
0.00816123
0.00822072
0.00818667
0.00805889
0.00783824
0.00752668
0.0071272
0.00664382
0.00608177
0.0054477
0.00474979
0.00399788
0.00320355
0.00238006
0.00154225
0.000706242
-0.00011093
-0.000891909
-0.00161969
-0.00227833
-0.00285377
-0.0033351
-0.00371509
-0.0039906
-0.00416299
-0.00423823
-0.00422647
-0.0041413
-0.00399859
-0.0038151
-0.00360717
-0.00338939
-0.00317375
-0.00296913
-0.00278127
-0.00261323
-0.00246593
-0.00233897
-0.0022312
-0.00214129
-0.00206786
-0.00200961
-0.00196518
-0.00193302
-0.00191144
-0.00189853
-0.00189227
-0.00189062
-0.00189169
-0.00189373
-0.00189527
-0.00189509
-0.00189222
-0.00188596
-0.00187587
-0.00186173
-0.00184354
-0.0018215
-0.00179598
-0.00176748
-0.00173657
-0.00170391
-0.00167014
-0.0016359
-0.0016018
-0.00156835
-0.001536
-0.0015051
-0.00147592
-0.00144862
-0.00142329
-0.00139996
-0.00137856
-0.00135901
-0.00134117
-0.00132488
-0.00130996
-0.00129623
-0.00128348
-0.00127154
-0.00126024
-0.0012494
-0.00123888
-0.00122854
-0.00121825
-0.00120791
-0.00119743
-0.00118673
-0.00117575
-0.00116442
-0.00115271
-0.00114058
-0.00112801
-0.00111498
-0.00110148
-0.00108751
-0.00107306
-0.00105813
-0.00104274
-0.00102688
-0.00101055
-0.000993768
-0.00097652
-0.000958802
-0.000940598
-0.000921886
-0.000902634
-0.000882802
-0.000862342
-0.000841203
-0.000819336
-0.000796704
-0.000773295
-0.000749142
-0.000724356
-0.000699115
-0.000673916
-0.000650725
-0.000619764
0.00131799
0.00126454
0.00120121
0.00113787
0.0010734
0.00100615
0.000935381
0.000860539
0.000780953
0.000695821
0.000604224
0.000505111
0.000397298
0.000279465
0.000150181
7.93538e-06
-0.000148809
-0.000321545
-0.000511633
-0.000720205
-0.000948049
-0.00119549
-0.00146227
-0.00174743
-0.0020492
-0.00236489
-0.00269087
-0.0030225
-0.00335418
-0.00367937
-0.00399073
-0.00428029
-0.00453963
-0.00476011
-0.00493319
-0.00505066
-0.00510498
-0.00508952
-0.00499888
-0.0048291
-0.00457788
-0.00424463
-0.0038306
-0.00333927
-0.00277611
-0.00214826
-0.00146454
-0.000735291
2.79093e-05
0.000812542
0.00160549
0.00239338
0.00316298
0.00390149
0.0045969
0.00523821
0.00581569
0.00632094
0.006747
0.00708836
0.00734084
0.00750155
0.0075687
0.0075414
0.00741975
0.00720467
0.00689801
0.00650264
0.00602233
0.00546196
0.00482782
0.0041278
0.00337151
0.00257046
0.00173807
0.000889563
4.17249e-05
-0.000787475
-0.00157946
-0.00231576
-0.00297884
-0.00355276
-0.00402481
-0.00438588
-0.00463164
-0.00476277
-0.0047853
-0.00471038
-0.0045536
-0.00433376
-0.00407128
-0.00378642
-0.00349754
-0.00321972
-0.00296395
-0.00273689
-0.00254132
-0.00237703
-0.00224182
-0.00213256
-0.00204595
-0.00197897
-0.00192896
-0.0018936
-0.00187068
-0.00185802
-0.00185349
-0.00185493
-0.00186022
-0.00186747
-0.00187498
-0.00188131
-0.00188529
-0.00188602
-0.00188284
-0.00187534
-0.00186334
-0.00184689
-0.00182623
-0.00180174
-0.00177398
-0.00174356
-0.00171117
-0.0016775
-0.00164324
-0.001609
-0.00157534
-0.00154272
-0.00151152
-0.00148201
-0.00145437
-0.0014287
-0.00140501
-0.00138327
-0.00136338
-0.00134521
-0.00132859
-0.00131335
-0.00129931
-0.00128627
-0.00127406
-0.00126249
-0.0012514
-0.00124064
-0.00123008
-0.00121959
-0.00120906
-0.00119841
-0.00118755
-0.00117642
-0.00116496
-0.00115314
-0.00114091
-0.00112825
-0.00111514
-0.00110158
-0.00108755
-0.00107305
-0.00105808
-0.00104265
-0.00102676
-0.00101042
-0.000993619
-0.000976363
-0.000958646
-0.000940454
-0.000921769
-0.000902564
-0.000882802
-0.000862445
-0.000841446
-0.000819766
-0.000797374
-0.000774262
-0.000750465
-0.00072609
-0.0007013
-0.000676518
-0.000653277
-0.000624246
0.00159447
0.0015164
0.00142853
0.00134703
0.00126924
0.00119177
0.00111278
0.00103085
0.00094446
0.000851988
0.000751746
0.000641959
0.000520745
0.000386111
0.00023597
6.81866e-05
-0.000119364
-0.000328698
-0.000561613
-0.000819552
-0.00110346
-0.00141361
-0.00174951
-0.00210969
-0.00249164
-0.0028917
-0.00330507
-0.00372574
-0.00414664
-0.00455971
-0.00495607
-0.00532628
-0.00566058
-0.00594915
-0.00618244
-0.00635149
-0.00644818
-0.00646559
-0.0063982
-0.00624214
-0.00599531
-0.00565761
-0.00523118
-0.00472028
-0.00413109
-0.00347169
-0.00275194
-0.0019833
-0.00117845
-0.000351027
0.000484782
0.00131462
0.00212437
0.00290051
0.00363048
0.00430292
0.00490792
0.00543714
0.00588382
0.0062428
0.00651034
0.00668402
0.00676253
0.00674541
0.00663297
0.00642625
0.00612707
0.00573811
0.00526282
0.0047057
0.00407257
0.00337091
0.00261001
0.00180122
0.000958017
9.59156e-05
-0.000767689
-0.00161393
-0.00242299
-0.0031749
-0.00385033
-0.00443158
-0.00490343
-0.00525466
-0.0054789
-0.00557531
-0.00554906
-0.00541139
-0.00517911
-0.00487349
-0.00451858
-0.00413909
-0.0037582
-0.00339549
-0.00306558
-0.00277747
-0.0025348
-0.00233687
-0.00217997
-0.00205886
-0.00196794
-0.00190203
-0.00185668
-0.00182813
-0.00181312
-0.00180877
-0.00181243
-0.00182164
-0.00183413
-0.00184786
-0.00186113
-0.00187247
-0.00188075
-0.00188508
-0.00188486
-0.00187972
-0.00186953
-0.0018544
-0.00183461
-0.00181062
-0.00178305
-0.00175258
-0.00171996
-0.00168592
-0.00165119
-0.00161644
-0.00158226
-0.00154912
-0.00151742
-0.00148744
-0.00145937
-0.0014333
-0.00140925
-0.00138718
-0.00136698
-0.00134853
-0.00133165
-0.00131617
-0.0013019
-0.00128864
-0.00127622
-0.00126445
-0.00125318
-0.00124224
-0.00123151
-0.00122086
-0.00121018
-0.00119939
-0.0011884
-0.00117715
-0.00116558
-0.00115366
-0.00114133
-0.00112859
-0.00111541
-0.00110178
-0.00108769
-0.00107314
-0.00105813
-0.00104266
-0.00102674
-0.00101037
-0.000993557
-0.000976293
-0.000958577
-0.0009404
-0.000921747
-0.000902595
-0.000882914
-0.000862669
-0.000841823
-0.000820339
-0.000798192
-0.000775376
-0.000751923
-0.000727928
-0.000703538
-0.000679097
-0.000655663
-0.000628715
0.00184574
0.00174399
0.00163257
0.00153363
0.00144283
0.00135481
0.00126644
0.00117522
0.00107859
0.000973989
0.000858844
0.000730563
0.000586504
0.000423963
0.000240199
3.2483e-05
-0.000201812
-0.000465094
-0.000759397
-0.00108622
-0.00144635
-0.00183967
-0.00226501
-0.00271999
-0.00320096
-0.00370291
-0.00421951
-0.00474316
-0.00526514
-0.00577579
-0.00626472
-0.00672111
-0.00713399
-0.00749253
-0.00778642
-0.00800608
-0.00814306
-0.00819022
-0.00814205
-0.00799482
-0.00774677
-0.00739854
-0.00695283
-0.00641459
-0.00579088
-0.00509079
-0.0043253
-0.00350704
-0.00264993
-0.00176885
-0.000879217
3.47185e-06
0.000864055
0.00168813
0.00246245
0.00317519
0.0038162
0.00437713
0.00485143
0.00523429
0.00552247
0.00571411
0.00580843
0.00580548
0.00570588
0.00551088
0.00522226
0.00484245
0.00437462
0.00382281
0.00319237
0.00249028
0.00172545
0.000909016
5.44184e-05
-0.000822565
-0.001704
-0.00257018
-0.00340012
-0.00417234
-0.00486575
-0.00546062
-0.00593963
-0.00628923
-0.00650032
-0.00657001
-0.00650186
-0.00630626
-0.00600025
-0.00560669
-0.00515265
-0.00466721
-0.00417876
-0.00371243
-0.00328783
-0.00291783
-0.00260832
-0.00235918
-0.00216579
-0.00202096
-0.00191665
-0.00184515
-0.0017997
-0.00177471
-0.00176548
-0.00176806
-0.00177905
-0.00179555
-0.00181494
-0.00183501
-0.00185391
-0.00187014
-0.00188254
-0.00189024
-0.00189265
-0.00188947
-0.00188061
-0.00186626
-0.00184677
-0.00182271
-0.00179475
-0.00176367
-0.00173028
-0.00169539
-0.00165978
-0.00162416
-0.00158914
-0.00155524
-0.00152286
-0.00149227
-0.00146368
-0.00143716
-0.00141274
-0.00139035
-0.00136988
-0.0013512
-0.00133412
-0.00131847
-0.00130403
-0.00129063
-0.00127807
-0.00126617
-0.00125476
-0.0012437
-0.00123285
-0.00122208
-0.00121129
-0.00120039
-0.00118929
-0.00117794
-0.00116628
-0.00115426
-0.00114185
-0.00112903
-0.00111578
-0.00110209
-0.00108794
-0.00107333
-0.00105828
-0.00104277
-0.00102681
-0.00101042
-0.000993581
-0.000976306
-0.000958593
-0.000940433
-0.000921815
-0.000902722
-0.000883128
-0.000863005
-0.000842319
-0.000821038
-0.000799139
-0.000776615
-0.000753493
-0.000729848
-0.000705813
-0.00068165
-0.000657943
-0.000633099
0.00203927
0.00191636
0.00178397
0.00166942
0.0015666
0.00146806
0.00136924
0.00126642
0.00115591
0.0010341
0.000897462
0.000742556
0.000565956
0.000364265
0.000134138
-0.000127642
-0.000424053
-0.000757683
-0.00113054
-0.00154388
-0.00199795
-0.00249187
-0.00302344
-0.00358902
-0.00418349
-0.00480028
-0.00543137
-0.00606751
-0.00669836
-0.00731273
-0.00789887
-0.00844476
-0.00893841
-0.00936818
-0.00972309
-0.0099931
-0.0101694
-0.0102448
-0.0102137
-0.0100725
-0.00981971
-0.00945657
-0.00898627
-0.00841444
-0.007749
-0.00700008
-0.00617983
-0.00530214
-0.0043823
-0.00343659
-0.0024818
-0.00153478
-0.000611916
0.000271315
0.00110079
0.00186407
0.00255065
0.00315209
0.003662
0.00407593
0.00439119
0.0046065
0.00472171
0.00473745
0.00465477
0.00447516
0.00420041
0.00383275
0.00337503
0.00283086
0.00220507
0.00150413
0.000736557
-8.67892e-05
-0.000952498
-0.00184457
-0.00274458
-0.003632
-0.00448473
-0.00527987
-0.00599464
-0.00660735
-0.00709855
-0.00745248
-0.00765741
-0.00770792
-0.00760553
-0.00735908
-0.00698492
-0.00650648
-0.00595291
-0.00535697
-0.00475211
-0.00416932
-0.00363418
-0.00316474
-0.0027706
-0.00245346
-0.00220873
-0.00202778
-0.00190019
-0.00181551
-0.00176437
-0.00173886
-0.0017325
-0.00173993
-0.00175678
-0.00177949
-0.00180499
-0.00183076
-0.00185477
-0.0018754
-0.00189144
-0.001902
-0.00190652
-0.00190471
-0.00189659
-0.0018824
-0.0018626
-0.00183784
-0.0018089
-0.00177665
-0.00174199
-0.0017058
-0.00166891
-0.00163209
-0.00159598
-0.0015611
-0.00152787
-0.00149657
-0.00146739
-0.00144039
-0.00141559
-0.0013929
-0.0013722
-0.00135333
-0.00133611
-0.00132034
-0.00130581
-0.00129232
-0.00127968
-0.0012677
-0.00125622
-0.00124508
-0.00123415
-0.00122329
-0.00121242
-0.00120143
-0.00119025
-0.00117881
-0.00116706
-0.00115496
-0.00114248
-0.00112958
-0.00111626
-0.0011025
-0.00108829
-0.00107363
-0.00105852
-0.00104297
-0.00102698
-0.00101055
-0.000993688
-0.000976402
-0.000958689
-0.000940547
-0.000921967
-0.000902936
-0.000883434
-0.000863437
-0.000842915
-0.00082184
-0.000800188
-0.000777949
-0.00075514
-0.000731818
-0.000708094
-0.00068416
-0.000660138
-0.000637303
0.00214406
0.00200404
0.00185459
0.00172708
0.00161362
0.00150475
0.00139442
0.00127764
0.00114955
0.00100547
0.00084092
0.000651592
0.000433324
0.000182092
-0.000105944
-0.000434342
-0.000806232
-0.00122413
-0.00168975
-0.00220375
-0.00276558
-0.00337326
-0.00402328
-0.00471055
-0.00542833
-0.0061684
-0.00692112
-0.00767562
-0.0084201
-0.00914204
-0.00982848
-0.0104664
-0.0110429
-0.0115456
-0.0119629
-0.0122844
-0.0125008
-0.0126046
-0.0125902
-0.0124538
-0.0121945
-0.0118136
-0.0113147
-0.0107042
-0.00999077
-0.00918565
-0.00830218
-0.00735562
-0.00636272
-0.00534133
-0.0043098
-0.00328654
-0.00228938
-0.00133507
-0.000438832
0.000386098
0.0011287
0.00178031
0.00233464
0.0027876
0.00313702
0.00338229
0.00352395
0.00356327
0.00350188
0.0033415
0.00308405
0.00273163
0.00228675
0.00175262
0.00113355
0.000435518
-0.000333374
-0.00116251
-0.00203853
-0.00294521
-0.00386362
-0.00477244
-0.00564852
-0.00646759
-0.00720524
-0.00783796
-0.00834426
-0.00870622
-0.00890999
-0.00894739
-0.0088177
-0.00852787
-0.00809293
-0.00753598
-0.00688726
-0.00618219
-0.00545856
-0.00475305
-0.00409752
-0.00351605
-0.00302318
-0.0026237
-0.00231415
-0.0020852
-0.00192442
-0.00181867
-0.0017557
-0.00172504
-0.00171803
-0.00172767
-0.00174837
-0.0017757
-0.00180604
-0.00183646
-0.00186466
-0.00188889
-0.0019078
-0.00192049
-0.00192639
-0.00192526
-0.00191717
-0.00190245
-0.00188168
-0.00185561
-0.00182512
-0.00179119
-0.00175479
-0.00171691
-0.00167841
-0.00164012
-0.00160269
-0.00156668
-0.00153249
-0.00150041
-0.0014706
-0.00144311
-0.00141793
-0.00139497
-0.00137407
-0.00135507
-0.00133776
-0.00132193
-0.00130736
-0.00129383
-0.00128116
-0.00126915
-0.00125764
-0.00124645
-0.00123547
-0.00122456
-0.00121362
-0.00120256
-0.0011913
-0.00117979
-0.00116796
-0.00115578
-0.00114322
-0.00113025
-0.00111686
-0.00110302
-0.00108875
-0.00107403
-0.00105887
-0.00104326
-0.00102723
-0.00101076
-0.000993876
-0.000976575
-0.000958861
-0.000940735
-0.000922193
-0.000903225
-0.000883817
-0.000863947
-0.000843589
-0.000822716
-0.000801304
-0.000779337
-0.00075682
-0.00073379
-0.000710336
-0.000686593
-0.000662243
-0.000641229
0.00213388
0.00198197
0.00182044
0.0016832
0.00156075
0.00144184
0.00131901
0.00118605
0.00103696
0.000866014
0.00066783
0.000437312
0.000169632
-0.000139755
-0.000495047
-0.000899961
-0.00135757
-0.0018701
-0.00243869
-0.00306319
-0.00374198
-0.00447184
-0.0052478
-0.00606324
-0.00690985
-0.00777782
-0.00865599
-0.0095321
-0.010393
-0.0112251
-0.0120143
-0.0127466
-0.0134084
-0.0139865
-0.0144686
-0.0148437
-0.0151022
-0.015236
-0.0152391
-0.0151078
-0.0148412
-0.0144407
-0.0139104
-0.013257
-0.0124903
-0.0116224
-0.010668
-0.00964378
-0.00856802
-0.00746028
-0.00634067
-0.00522934
-0.00414578
-0.00310828
-0.00213335
-0.00123526
-0.000425739
0.000286206
0.000894264
0.00139464
0.0017857
0.00206753
0.00224144
0.00230942
0.00227372
0.00213648
0.00189978
0.00156567
0.00113634
0.000614622
4.36607e-06
-0.000688932
-0.00145756
-0.00229113
-0.00317628
-0.00409658
-0.00503257
-0.00596217
-0.00686115
-0.00770396
-0.00846467
-0.00911803
-0.00964066
-0.0100125
-0.0102182
-0.0102467
-0.0100952
-0.00976877
-0.00928069
-0.00865316
-0.00791663
-0.00710819
-0.00626901
-0.00544068
-0.00466116
-0.00396086
-0.00336002
-0.00286761
-0.00248239
-0.0021952
-0.0019922
-0.00185777
-0.00177684
-0.00173613
-0.00172464
-0.00173345
-0.00175558
-0.00178557
-0.0018191
-0.00185277
-0.00188395
-0.00191067
-0.00193147
-0.00194536
-0.00195178
-0.00195051
-0.0019417
-0.00192576
-0.00190337
-0.0018754
-0.00184285
-0.00180678
-0.00176828
-0.00172838
-0.00168804
-0.00164808
-0.0016092
-0.00157196
-0.00153676
-0.00150386
-0.00147341
-0.00144546