/*--------------------------------*- C++ -*----------------------------------*\
  =========                 |
  \\      /  F ield         | OpenFOAM: The Open Source CFD Toolbox
   \\    /   O peration     | Website:  https://openfoam.org
    \\  /    A nd           | Version:  8
     \\/     M anipulation  |
\*---------------------------------------------------------------------------*/
FoamFile
{
    version     2.0;
    format      ascii;
    class       surfaceScalarField;
    location    "0.8";
    object      phi;
}
// * * * * * * * * * * * * * * * * * * * * * * * * * * * * * * * * * * * * * //

dimensions      [0 3 -1 0 0 0 0];

internalField   nonuniform List<scalar> 
24170
(
-2.37884e-12
2.37884e-12
4.45191e-12
-6.83075e-12
1.94358e-11
-1.49839e-11
4.08806e-11
-2.14447e-11
6.75374e-11
-2.66568e-11
9.86349e-11
-3.10975e-11
1.33669e-10
-3.5034e-11
1.72304e-10
-3.86346e-11
2.14335e-10
-4.20317e-11
2.59715e-10
-4.53798e-11
3.08599e-10
-4.88835e-11
3.6139e-10
-5.27919e-11
4.18688e-10
-5.72974e-11
4.8069e-10
-6.2002e-11
5.43646e-10
-6.29564e-11
5.80094e-10
-3.64481e-11
4.94353e-10
8.57418e-11
1.43597e-09
-9.41618e-10
-2.47289e-12
4.85173e-12
2.07222e-11
-3.00259e-11
6.86957e-11
-6.29573e-11
1.36462e-10
-8.92109e-11
2.20374e-10
-1.10569e-10
3.17945e-10
-1.28668e-10
4.2744e-10
-1.44528e-10
5.47546e-10
-1.58741e-10
6.77231e-10
-1.71717e-10
8.1569e-10
-1.83839e-10
9.62267e-10
-1.95461e-10
1.11612e-09
-2.06642e-10
1.27499e-09
-2.16167e-10
1.43125e-09
-2.18264e-10
1.55868e-09
-1.9039e-10
1.5692e-09
-4.69661e-11
1.1361e-09
5.18845e-10
3.19641e-09
-6.24344e-10
1.76737e-12
3.08436e-12
4.6023e-11
-7.42815e-11
1.32452e-10
-1.49387e-10
2.53073e-10
-2.09832e-10
4.01766e-10
-2.59262e-10
5.74076e-10
-3.00978e-10
7.6669e-10
-3.37143e-10
9.76873e-10
-3.68923e-10
1.20214e-09
-3.96983e-10
1.43999e-09
-4.21694e-10
1.68746e-09
-4.4293e-10
1.93986e-09
-4.59039e-10
2.1875e-09
-4.63807e-10
2.40707e-09
-4.37838e-10
2.53902e-09
-3.22337e-10
2.43012e-09
6.19302e-11
1.6846e-09
1.26437e-09
5.02407e-09
-1.43059e-10
1.01985e-11
-7.11411e-12
8.10888e-11
-1.45172e-10
2.11908e-10
-2.80206e-10
3.92099e-10
-3.90023e-10
6.13004e-10
-4.80167e-10
8.67962e-10
-5.55936e-10
1.15168e-09
-6.20861e-10
1.45944e-09
-6.76682e-10
1.78651e-09
-7.24054e-10
2.12754e-09
-7.62723e-10
2.47543e-09
-7.90826e-10
2.8189e-09
-8.02503e-10
3.13678e-09
-7.81685e-10
3.38546e-09
-6.86526e-10
3.47214e-09
-4.09011e-10
3.20665e-09
3.27422e-10
2.25041e-09
2.2206e-09
6.81708e-09
4.5741e-10
2.29433e-11
-3.00574e-11
1.26398e-10
-2.48627e-10
3.0782e-10
-4.61627e-10
5.5422e-10
-6.36423e-10
8.54349e-10
-7.80296e-10
1.19909e-09
-9.00682e-10
1.58074e-09
-1.0025e-09
1.99193e-09
-1.08787e-09
2.42477e-09
-1.15689e-09
2.86974e-09
-1.2077e-09
3.31381e-09
-1.23489e-09
3.73667e-09
-1.22536e-09
4.10328e-09
-1.14829e-09
4.34971e-09
-9.32955e-10
4.35986e-09
-4.19165e-10
3.9418e-09
7.45478e-10
2.86112e-09
3.30128e-09
8.50446e-09
1.17374e-09
3.98449e-11
-6.99023e-11
1.81972e-10
-3.90754e-10
4.2018e-10
-6.99835e-10
7.38999e-10
-9.55241e-10
1.12451e-09
-1.16581e-09
1.56491e-09
-1.34108e-09
2.04957e-09
-1.48716e-09
2.5678e-09
-1.6061e-09
3.10759e-09
-1.69668e-09
3.65395e-09
-1.75407e-09
4.18637e-09
-1.76731e-09
4.67403e-09
-1.71303e-09
5.06781e-09
-1.54207e-09
5.2877e-09
-1.15284e-09
5.20895e-09
-3.40409e-10
4.66565e-09
1.28878e-09
3.53322e-09
4.43371e-09
1.00443e-08
1.99335e-09
6.05582e-11
-1.30461e-10
2.47224e-10
-5.7742e-10
5.47952e-10
-1.00056e-09
9.44502e-10
-1.35179e-09
1.42018e-09
-1.64149e-09
1.96021e-09
-1.88111e-09
2.55062e-09
-2.07757e-09
3.17669e-09
-2.23217e-09
3.82138e-09
-2.34136e-09
4.46321e-09
-2.39589e-09
5.07317e-09
-2.37727e-09
5.6098e-09
-2.24966e-09
6.01197e-09
-1.94425e-09
6.1908e-09
-1.33167e-09
6.02761e-09
-1.77225e-10
5.39945e-09
1.91694e-09
4.2775e-09
5.55566e-09
1.14106e-08
2.91119e-09
8.44804e-11
-2.14941e-10
3.20796e-10
-8.13736e-10
6.88762e-10
-1.36853e-09
1.16685e-09
-1.82988e-09
1.73542e-09
-2.21006e-09
2.37652e-09
-2.52222e-09
3.07241e-09
-2.77345e-09
3.80377e-09
-2.96353e-09
4.54782e-09
-3.08542e-09
5.276e-09
-3.12407e-09
5.95072e-09
-3.05199e-09
6.52106e-09
-2.82e-09
6.91799e-09
-2.34118e-09
7.05209e-09
-1.46577e-09
6.82283e-09
5.20331e-11
6.15668e-09
2.58309e-09
5.09855e-09
6.61379e-09
1.25852e-08
3.92403e-09
1.10712e-10
-3.25653e-10
4.00408e-10
-1.10343e-09
8.38581e-10
-1.8067e-09
1.39975e-09
-2.39104e-09
2.06113e-09
-2.87144e-09
2.80143e-09
-3.26252e-09
3.59885e-09
-3.57088e-09
4.42913e-09
-3.7938e-09
5.26346e-09
-3.91975e-09
6.06618e-09
-3.9268e-09
6.79201e-09
-3.77781e-09
7.38316e-09
-3.41115e-09
7.76785e-09
-2.72586e-09
7.86419e-09
-1.56212e-09
7.59752e-09
3.18704e-10
6.94211e-09
3.2385e-09
5.99362e-09
7.56228e-09
1.35523e-08
5.02652e-09
1.38015e-10
-4.63668e-10
4.82707e-10
-1.44812e-09
9.91421e-10
-2.31542e-09
1.63403e-09
-3.03365e-09
2.38444e-09
-3.62186e-09
3.21796e-09
-4.09604e-09
4.10867e-09
-4.46158e-09
5.02733e-09
-4.71246e-09
5.93933e-09
-4.83176e-09
6.80271e-09
-4.79017e-09
7.56631e-09
-4.54141e-09
8.16898e-09
-4.01382e-09
8.5417e-09
-3.09858e-09
8.61645e-09
-1.63686e-09
8.34768e-09
5.87475e-10
7.75069e-09
3.83549e-09
6.95169e-09
8.36127e-09
1.4296e-08
6.20799e-09
1.64942e-10
-6.2861e-10
5.63172e-10
-1.84635e-09
1.13907e-09
-2.89132e-09
1.85726e-09
-3.75183e-09
2.68823e-09
-4.45284e-09
3.60401e-09
-5.01181e-09
4.57481e-09
-5.43239e-09
5.56688e-09
-5.70454e-09
6.54063e-09
-5.8055e-09
7.44928e-09
-5.69883e-09
8.23849e-09
-5.33062e-09
8.84769e-09
-4.62302e-09
9.21548e-09
-3.46637e-09
9.29171e-09
-1.7131e-09
9.05943e-09
8.19758e-10
8.56571e-09
4.32921e-09
7.95148e-09
8.97551e-09
1.47984e-08
7.44907e-09
1.5895e-10
-7.8756e-10
5.32066e-10
-2.21947e-09
1.06415e-09
-3.4234e-09
1.72061e-09
-4.40829e-09
2.47391e-09
-5.20613e-09
3.29817e-09
-5.83608e-09
4.1658e-09
-6.30002e-09
5.0455e-09
-6.58424e-09
5.9011e-09
-6.6611e-09
6.69111e-09
-6.48884e-09
7.3695e-09
-6.00901e-09
7.88852e-09
-5.14205e-09
8.20501e-09
-3.78285e-09
8.29158e-09
-1.79967e-09
8.15339e-09
9.5795e-10
7.84731e-09
4.6353e-09
7.49471e-09
9.3281e-09
1.50215e-08
7.27158e-09
1.99564e-10
-9.87124e-10
6.62596e-10
-2.6825e-09
1.3135e-09
-4.0743e-09
2.10855e-09
-5.20335e-09
3.0138e-09
-6.11138e-09
3.99765e-09
-6.81993e-09
5.02647e-09
-7.32884e-09
6.06242e-09
-7.62018e-09
7.0625e-09
-7.66118e-09
7.97898e-09
-7.40533e-09
8.76155e-09
-6.79158e-09
9.36204e-09
-5.74254e-09
9.74278e-09
-4.16359e-09
9.88918e-09
-1.94607e-09
9.82549e-09
1.02164e-09
9.62936e-09
4.83143e-09
9.43652e-09
9.52094e-09
1.50352e-08
9.42284e-09
2.41511e-10
-1.22863e-09
7.97156e-10
-3.23815e-09
1.56776e-09
-4.84491e-09
2.49922e-09
-6.1348e-09
3.55111e-09
-7.16328e-09
4.68632e-09
-7.95514e-09
5.86577e-09
-8.50829e-09
7.04605e-09
-8.80046e-09
8.1791e-09
-8.79422e-09
9.21369e-09
-8.43992e-09
1.00993e-08
-7.67715e-09
1.07924e-08
-6.43569e-09
1.12667e-08
-4.63788e-09
1.1525e-08
-2.20436e-09
1.16123e-08
9.34303e-10
1.16244e-08
4.81935e-09
1.17045e-08
9.44086e-09
1.47174e-08
1.20223e-08
2.75315e-10
-1.50395e-09
9.03901e-10
-3.86673e-09
1.7654e-09
-5.70641e-09
2.79606e-09
-7.16546e-09
3.95064e-09
-8.31785e-09
5.18858e-09
-9.19308e-09
6.46804e-09
-9.78775e-09
7.74356e-09
-1.0076e-08
8.96644e-09
-1.00171e-08
1.00875e-08
-9.56102e-09
1.10624e-08
-8.65204e-09
1.18591e-08
-7.23241e-09
1.24679e-08
-5.24666e-09
1.29117e-08
-2.64816e-09
1.32546e-08
5.91386e-10
1.36042e-08
4.46976e-09
1.4103e-08
8.94207e-09
1.39127e-08
1.49077e-08
2.8173e-10
-1.78568e-09
9.19924e-10
-4.50493e-09
1.78556e-09
-6.57204e-09
2.81144e-09
-8.19134e-09
3.95282e-09
-9.45924e-09
5.17127e-09
-1.04115e-08
6.42842e-09
-1.10449e-08
7.68399e-09
-1.13315e-08
8.89687e-09
-1.123e-08
1.00287e-08
-1.06929e-08
1.10498e-08
-9.67311e-09
1.19464e-08
-8.12906e-09
1.27294e-08
-6.0296e-09
1.34409e-08
-3.35966e-09
1.41586e-08
-1.26373e-10
1.49931e-08
3.63525e-09
1.60772e-08
7.85805e-09
1.24423e-08
1.75475e-08
2.27733e-10
-2.01341e-09
7.37659e-10
-5.01485e-09
1.42205e-09
-7.25643e-09
2.22667e-09
-8.99597e-09
3.11883e-09
-1.03514e-08
4.07293e-09
-1.13656e-08
5.06521e-09
-1.20372e-08
6.07243e-09
-1.23388e-08
7.07334e-09
-1.22309e-08
8.05208e-09
-1.16716e-08
9.0033e-09
-1.06243e-08
9.93795e-09
-9.0637e-09
1.08886e-08
-6.98028e-09
1.19131e-08
-4.38417e-09
1.30944e-08
-1.30763e-09
1.45359e-08
2.1938e-09
1.63515e-08
6.04236e-09
1.0142e-08
1.86519e-08
6.49601e-11
-2.07837e-09
2.01828e-10
-5.15172e-09
3.78612e-10
-7.43321e-09
5.83945e-10
-9.2013e-09
8.16396e-10
-1.05838e-08
1.07935e-09
-1.16286e-08
1.37933e-09
-1.23371e-08
1.72589e-09
-1.26853e-08
2.13291e-09
-1.26379e-08
2.62067e-09
-1.21594e-08
3.21872e-09
-1.12224e-08
3.96858e-09
-9.81357e-09
4.92569e-09
-7.93739e-09
6.15951e-09
-5.61799e-09
7.75119e-09
-2.89931e-09
9.78871e-09
1.56286e-10
1.2359e-08
3.47205e-09
6.96011e-09
1.55409e-08
-2.57849e-10
-1.82052e-09
-8.42454e-10
-4.56712e-09
-1.6367e-09
-6.63897e-09
-2.57219e-09
-8.26581e-09
-3.59701e-09
-9.55902e-09
-4.66166e-09
-1.05639e-08
-5.7134e-09
-1.12854e-08
-6.69412e-09
-1.17046e-08
-7.53958e-09
-1.17924e-08
-8.17948e-09
-1.15195e-08
-8.53802e-09
-1.08638e-08
-8.53494e-09
-9.81665e-09
-8.08724e-09
-8.38508e-09
-7.11175e-09
-6.59349e-09
-5.52862e-09
-4.48244e-09
-3.26596e-09
-2.10637e-09
-2.63917e-10
4.7001e-10
3.17474e-09
3.52146e-09
-3.73529e-10
-1.44699e-09
-1.21986e-09
-3.72078e-09
-2.37376e-09
-5.48507e-09
-3.74601e-09
-6.89357e-09
-5.27453e-09
-8.0305e-09
-6.90359e-09
-8.93488e-09
-8.57537e-09
-9.61362e-09
-1.02268e-08
-1.00532e-08
-1.17891e-08
-1.02301e-08
-1.31891e-08
-1.01195e-08
-1.43511e-08
-9.70184e-09
-1.51998e-08
-8.96801e-09
-1.56628e-08
-7.92199e-09
-1.56744e-08
-6.58198e-09
-1.51772e-08
-4.97959e-09
-1.41257e-08
-3.15785e-09
-1.24875e-08
-1.16825e-09
9.32592e-10
-1.02453e-08
-3.98625e-10
-1.04837e-09
-1.30788e-09
-2.81153e-09
-2.55982e-09
-4.23313e-09
-4.06602e-09
-5.38737e-09
-5.76563e-09
-6.33089e-09
-7.60464e-09
-7.09587e-09
-9.52728e-09
-7.69097e-09
-1.14727e-08
-8.10783e-09
-1.33741e-08
-8.32869e-09
-1.51603e-08
-8.33326e-09
-1.67577e-08
-8.10441e-09
-1.80934e-08
-7.63234e-09
-1.90982e-08
-6.91722e-09
-1.97099e-08
-5.97028e-09
-1.9876e-08
-4.81347e-09
-1.95559e-08
-3.47793e-09
-1.87223e-08
-2.00189e-09
-4.2824e-10
-1.73614e-08
-3.54366e-10
-6.94002e-10
-1.17691e-09
-1.98899e-09
-2.32816e-09
-3.08188e-09
-3.73399e-09
-3.98154e-09
-5.34207e-09
-4.72281e-09
-7.10585e-09
-5.3321e-09
-8.97758e-09
-5.81924e-09
-1.09052e-08
-6.18025e-09
-1.28312e-08
-6.40265e-09
-1.46937e-08
-6.47077e-09
-1.64278e-08
-6.37025e-09
-1.79687e-08
-6.09148e-09
-1.9254e-08
-5.63194e-09
-2.02271e-08
-4.99722e-09
-2.08395e-08
-4.20106e-09
-2.1053e-08
-3.26437e-09
-2.08411e-08
-2.21376e-09
-1.08017e-09
-2.01892e-08
-2.78607e-10
-4.15396e-10
-9.46291e-10
-1.32131e-09
-1.90369e-09
-2.12448e-09
-3.09408e-09
-2.79114e-09
-4.47489e-09
-3.342e-09
-6.00823e-09
-3.79876e-09
-7.65595e-09
-4.17152e-09
-9.37674e-09
-4.45945e-09
-1.1125e-08
-4.65442e-09
-1.28508e-08
-4.74496e-09
-1.45012e-08
-4.71979e-09
-1.60223e-08
-4.57043e-09
-1.73611e-08
-4.29311e-09
-1.84686e-08
-3.88971e-09
-1.93018e-08
-3.36795e-09
-1.98252e-08
-2.74088e-09
-2.00131e-08
-2.0259e-09
-1.24407e-09
-1.98492e-08
-1.97091e-10
-2.18305e-10
-6.96421e-10
-8.21977e-10
-1.43707e-09
-1.38383e-09
-2.37737e-09
-1.85085e-09
-3.48334e-09
-2.23602e-09
-4.72515e-09
-2.55695e-09
-6.07371e-09
-2.82297e-09
-7.49813e-09
-3.03503e-09
-8.96433e-09
-3.18821e-09
-1.04347e-08
-3.27464e-09
-1.18684e-08
-3.28602e-09
-1.32233e-08
-3.21559e-09
-1.44569e-08
-3.05949e-09
-1.5529e-08
-2.8176e-09
-1.64032e-08
-2.49372e-09
-1.70487e-08
-2.0954e-09
-1.74413e-08
-1.63328e-09
-1.12075e-09
-1.75646e-08
-1.24641e-10
-9.36633e-11
-4.7239e-10
-4.74229e-10
-1.01231e-09
-8.4391e-10
-1.71376e-09
-1.1494e-09
-2.54985e-09
-1.39993e-09
-3.49772e-09
-1.60909e-09
-4.53609e-09
-1.78459e-09
-5.64309e-09
-1.92804e-09
-6.79463e-09
-2.03667e-09
-7.96383e-09
-2.10544e-09
-9.12114e-09
-2.12871e-09
-1.02351e-08
-2.10158e-09
-1.12738e-08
-2.02085e-09
-1.22058e-08
-1.88559e-09
-1.30022e-08
-1.69735e-09
-1.36374e-08
-1.46012e-09
-1.40908e-08
-1.17992e-09
-8.64594e-10
-1.4347e-08
-6.80182e-11
-2.56451e-11
-2.93738e-10
-2.48509e-10
-6.65718e-10
-4.7193e-10
-1.16089e-09
-6.54227e-10
-1.75835e-09
-8.02461e-10
-2.44119e-09
-9.26254e-10
-3.1946e-09
-1.03119e-09
-4.0039e-09
-1.11873e-09
-4.85307e-09
-1.1875e-09
-5.72398e-09
-1.23452e-09
-6.59638e-09
-1.25631e-09
-7.44825e-09
-1.24971e-09
-8.25665e-09
-1.21245e-09
-8.9987e-09
-1.14353e-09
-9.65267e-09
-1.04339e-09
-1.01989e-08
-9.13888e-10
-1.06207e-08
-7.58124e-10
-5.80206e-10
-1.09051e-08
-2.87881e-11
3.14302e-12
-1.64049e-10
-1.13249e-10
-4.04361e-10
-2.31618e-10
-7.32156e-10
-3.26432e-10
-1.13188e-09
-4.02737e-10
-1.59171e-09
-4.66424e-10
-2.102e-09
-5.20894e-10
-2.65357e-09
-5.67161e-10
-3.23648e-09
-6.04599e-10
-3.83933e-09
-6.31672e-10
-4.44913e-09
-6.46516e-10
-5.05147e-09
-6.47372e-10
-5.63102e-09
-6.32897e-10
-6.17219e-09
-6.02369e-10
-6.65979e-09
-5.55783e-10
-7.07981e-09
-4.93868e-10
-7.41993e-09
-4.18004e-10
-3.30028e-10
-7.67011e-09
-5.60862e-12
8.75164e-12
-7.8326e-11
-4.05312e-11
-2.19987e-10
-8.9957e-11
-4.17721e-10
-1.28697e-10
-6.60941e-10
-1.59517e-10
-9.42142e-10
-1.85223e-10
-1.25564e-09
-2.07401e-10
-1.59624e-09
-2.26552e-10
-1.95839e-09
-2.42452e-10
-2.33559e-09
-2.54473e-10
-2.72028e-09
-2.61827e-10
-3.1039e-09
-2.63751e-10
-3.47716e-09
-2.59634e-10
-3.83042e-09
-2.49105e-10
-4.15413e-09
-2.32074e-10
-4.43926e-09
-2.08747e-10
-4.67767e-09
-1.79586e-10
-1.4522e-10
-4.86248e-09
4.48429e-12
4.26735e-12
-2.79657e-11
-8.08127e-12
-9.81662e-11
-1.97565e-11
-1.98169e-10
-2.86945e-11
-3.21981e-10
-3.57049e-11
-4.65654e-10
-4.15501e-11
-6.26409e-10
-4.66455e-11
-8.01836e-10
-5.11257e-11
-9.89344e-10
-5.49445e-11
-1.18586e-09
-5.79551e-11
-1.38772e-09
-5.99688e-11
-1.59067e-09
-6.07974e-11
-1.79002e-09
-6.0284e-11
-1.98081e-09
-5.83236e-11
-2.158e-09
-5.48744e-11
-2.31679e-09
-4.99611e-11
-2.45273e-09
-4.36501e-11
-3.60608e-11
-2.56189e-09
4.26735e-12
-3.81392e-12
-2.35704e-11
-5.22649e-11
-8.79698e-11
-1.2952e-10
-1.76165e-10
-2.27291e-10
-2.82236e-10
-3.40191e-10
-4.0016e-10
-4.60957e-10
-5.21241e-10
-5.79565e-10
-6.34439e-10
-6.844e-10
-7.2805e-10
-7.64111e-10
5.41444e-11
-5.41444e-11
1.87904e-10
-1.3376e-10
3.68247e-10
-1.80343e-10
5.64285e-10
-1.96038e-10
7.51447e-10
-1.87162e-10
9.11017e-10
-1.59571e-10
1.02929e-09
-1.18277e-10
1.09669e-09
-6.73998e-11
1.10685e-09
-1.01558e-11
1.0558e-09
5.10502e-11
9.41305e-10
1.14495e-10
7.62196e-10
1.79109e-10
5.17907e-10
2.44289e-10
2.08094e-10
3.09813e-10
-1.6765e-10
3.75744e-10
-6.09978e-10
4.42328e-10
-1.11987e-09
5.09895e-10
-1.69865e-09
5.78777e-10
-2.34789e-09
6.49244e-10
-3.06933e-09
7.21439e-10
-3.86466e-09
7.95324e-10
-4.7353e-09
8.70643e-10
-5.6822e-09
9.46896e-10
-6.70553e-09
1.02333e-09
-7.80447e-09
1.09894e-09
-8.97695e-09
1.17248e-09
-1.02194e-08
1.24248e-09
-1.15267e-08
1.30726e-09
-1.28917e-08
1.36503e-09
-1.43055e-08
1.41383e-09
-1.57572e-08
1.45167e-09
-1.72338e-08
1.47656e-09
-1.87203e-08
1.48654e-09
-2.02001e-08
1.47981e-09
-2.16548e-08
1.45472e-09
-2.30648e-08
1.40994e-09
-2.44092e-08
1.34443e-09
-2.56668e-08
1.25757e-09
-2.6816e-08
1.14918e-09
-2.78356e-08
1.01958e-09
-2.87051e-08
8.6958e-10
-2.94057e-08
7.00522e-10
-2.99199e-08
5.14239e-10
-3.02329e-08
3.13047e-10
-3.03329e-08
9.99663e-11
-3.02095e-08
-1.23425e-10
-2.98576e-08
-3.519e-10
-2.92748e-08
-5.82743e-10
-2.84625e-08
-8.12375e-10
-2.74252e-08
-1.03724e-09
-2.61712e-08
-1.25401e-09
-2.47116e-08
-1.45963e-09
-2.30602e-08
-1.65138e-09
-2.12332e-08
-1.82701e-09
-1.92485e-08
-1.98473e-09
-1.71252e-08
-2.12324e-09
-1.48835e-08
-2.24176e-09
-1.25435e-08
-2.33995e-09
-1.01256e-08
-2.41789e-09
-7.64968e-09
-2.47594e-09
-5.13497e-09
-2.5147e-09
-2.60015e-09
-2.53483e-09
-6.33737e-11
-2.53677e-09
2.45805e-09
-2.52142e-09
4.9471e-09
-2.48905e-09
7.3864e-09
-2.4393e-09
9.75861e-09
-2.37221e-09
1.2046e-08
-2.28735e-09
1.42299e-08
-2.18396e-09
1.6291e-08
-2.06112e-09
1.82089e-08
-1.91782e-09
1.99621e-08
-1.75321e-09
2.15288e-08
-1.56674e-09
2.28872e-08
-1.35836e-09
2.40159e-08
-1.12874e-09
2.48954e-08
-8.79448e-10
2.55085e-08
-6.13098e-10
2.5842e-08
-3.33535e-10
2.58869e-08
-4.49125e-11
2.56414e-08
2.45493e-10
2.51099e-08
5.31537e-10
2.43039e-08
8.05959e-10
2.3243e-08
1.06096e-09
2.1954e-08
1.289e-09
2.04708e-08
1.48318e-09
1.8833e-08
1.63777e-09
1.70844e-08
1.74864e-09
1.52707e-08
1.81361e-09
1.34381e-08
1.83266e-09
1.16301e-08
1.80798e-09
9.88635e-09
1.74375e-09
8.24052e-09
1.64583e-09
6.71932e-09
1.5212e-09
5.34191e-09
1.37741e-09
4.11992e-09
1.22198e-09
3.05795e-09
1.06197e-09
2.1543e-09
9.03648e-10
1.40193e-09
7.52378e-10
7.89289e-10
6.12637e-10
3.01235e-10
4.88053e-10
-8.01607e-11
3.81396e-10
-3.74612e-10
2.94451e-10
-6.02414e-10
2.27802e-10
-7.83121e-10
1.80707e-10
-9.34264e-10
1.51143e-10
-1.07027e-09
1.36002e-10
-1.20178e-09
1.3151e-10
-1.33549e-09
1.33715e-10
-1.47445e-09
1.38956e-10
-1.61866e-09
1.4421e-10
-1.76592e-09
1.47266e-10
-1.91266e-09
1.46741e-10
-2.05465e-09
1.41988e-10
-2.1876e-09
1.32948e-10
-2.30758e-09
1.19979e-10
-2.4113e-09
1.03717e-10
-2.49625e-09
8.49502e-11
-2.56078e-09
6.45331e-11
-2.6041e-09
4.33179e-11
-2.6262e-09
2.21003e-11
-2.62792e-09
1.72148e-12
-2.61042e-09
-1.74989e-11
-2.57568e-09
-3.47366e-11
-2.52589e-09
-4.97903e-11
-2.4635e-09
-6.23976e-11
-2.39105e-09
-7.24441e-11
-2.31112e-09
-7.99302e-11
-2.22617e-09
-8.49529e-11
-2.13848e-09
-8.76872e-11
-2.05012e-09
-8.83662e-11
-1.96285e-09
-8.72608e-11
-1.87819e-09
-8.46618e-11
-1.79733e-09
-8.08634e-11
-1.72118e-09
-7.61503e-11
-1.65039e-09
-7.07873e-11
-1.58538e-09
-6.50124e-11
-1.52635e-09
-5.90324e-11
-1.47333e-09
-5.30217e-11
-1.4262e-09
-4.71218e-11
-1.38476e-09
-4.14435e-11
-1.34869e-09
-3.60693e-11
-1.31763e-09
-3.10569e-11
-1.29119e-09
-2.64431e-11
-1.26894e-09
-2.22466e-11
-1.25047e-09
-1.84723e-11
-1.23536e-09
-1.51141e-11
-1.2232e-09
-1.21575e-11
-1.21362e-09
-9.58224e-12
-1.20625e-09
-7.364e-12
-1.20078e-09
-5.47601e-12
-1.19689e-09
-3.8906e-12
-1.19431e-09
-2.581e-12
-1.19279e-09
-1.51734e-12
-1.19212e-09
-6.73311e-13
-1.19213e-09
1.02787e-14
-1.19262e-09
4.98745e-13
-1.19346e-09
8.3782e-13
-1.19454e-09
1.07946e-12
-1.19577e-09
1.23102e-12
-1.19709e-09
1.31712e-12
-1.19845e-09
1.36236e-12
-1.19984e-09
1.39016e-12
-1.20126e-09
1.42131e-12
-1.20274e-09
1.47189e-12
-1.20429e-09
1.54981e-12
-1.20594e-09
1.65053e-12
-1.20769e-09
1.75193e-12
-1.2095e-09
1.80875e-12
-1.21124e-09
1.7476e-12
-1.21271e-09
1.46263e-12
-1.21353e-09
8.22285e-13
-1.21319e-09
-3.39681e-13
-1.21088e-09
-2.31018e-12
-1.20564e-09
-5.23537e-12
-1.19612e-09
-9.52495e-12
-1.18046e-09
-1.56632e-11
-1.15579e-09
-2.46671e-11
-1.1164e-09
-3.93867e-11
-1.0552e-09
-6.12058e-11
-1.331e-10
-9.22096e-10
9.84277e-11
-1.52572e-10
3.08829e-10
-3.44161e-10
5.6603e-10
-4.37544e-10
8.18086e-10
-4.48094e-10
1.02231e-09
-3.91386e-10
1.14453e-09
-2.81795e-10
1.15808e-09
-1.31826e-10
1.04262e-09
4.80614e-11
7.83017e-10
2.4945e-10
3.68233e-10
4.65834e-10
-2.09693e-10
6.9242e-10
-9.56487e-10
9.25903e-10
-1.8764e-09
1.1642e-09
-2.97279e-09
1.4062e-09
-4.24854e-09
1.65149e-09
-5.7063e-09
1.90009e-09
-7.34861e-09
2.15221e-09
-9.17785e-09
2.40802e-09
-1.1196e-08
2.66739e-09
-1.34043e-08
2.92975e-09
-1.58029e-08
3.19393e-09
-1.83903e-08
3.45803e-09
-2.11628e-08
3.71936e-09
-2.41139e-08
3.97447e-09
-2.72341e-08
4.21912e-09
-3.051e-08
4.44839e-09
-3.39243e-08
4.65676e-09
-3.74553e-08
4.83828e-09
-4.1077e-08
4.9867e-09
-4.47588e-08
5.09568e-09
-4.84661e-08
5.15897e-09
-5.21602e-08
5.17066e-09
-5.57991e-08
5.12538e-09
-5.93378e-08
5.01851e-09
-6.27294e-08
4.84641e-09
-6.59261e-08
4.60657e-09
-6.88794e-08
4.29779e-09
-7.15422e-08
3.92031e-09
-7.38688e-08
3.47584e-09
-7.58169e-08
2.96761e-09
-7.73476e-08
2.40034e-09
-7.84273e-08
1.78016e-09
-7.90275e-08
1.11443e-09
-7.91262e-08
4.11752e-10
-7.87075e-08
-3.18692e-10
-7.77638e-08
-1.06713e-09
-7.62934e-08
-1.82232e-09
-7.43022e-08
-2.57394e-09
-7.18028e-08
-3.31173e-09
-6.88142e-08
-4.0259e-09
-6.53608e-08
-4.7074e-09
-6.14722e-08
-5.3482e-09
-5.71822e-08
-5.9414e-09
-5.25278e-08
-6.48143e-09
-4.75484e-08
-6.96408e-09
-4.22851e-08
-7.38656e-09
-3.67794e-08
-7.7474e-09
-3.10731e-08
-8.04634e-09
-2.52068e-08
-8.28412e-09
-1.92205e-08
-8.46229e-09
-1.31523e-08
-8.58284e-09
-7.03927e-09
-8.64789e-09
-9.16735e-10
-8.65931e-09
5.18016e-09
-8.61832e-09
1.12166e-08
-8.52547e-09
1.7158e-08
-8.38075e-09
2.29692e-08
-8.18341e-09
2.86134e-08
-7.93154e-09
3.40517e-08
-7.62223e-09
3.92425e-08
-7.25189e-09
4.41412e-08
-6.81657e-09
4.87004e-08
-6.31244e-09
5.28701e-08
-5.73635e-09
5.65981e-08
-5.08638e-09
5.98319e-08
-4.36252e-09
6.25196e-08
-3.56723e-09
6.46126e-08
-2.70602e-09
6.60669e-08
-1.78787e-09
6.68474e-08
-8.25456e-10
6.6928e-08
1.64919e-10
6.62987e-08
1.16089e-09
6.49634e-08
2.14122e-09
6.29447e-08
3.07961e-09
6.02842e-08
3.94954e-09
5.70426e-08
4.72482e-09
5.32989e-08
5.38142e-09
4.91484e-08
5.8992e-09
4.46984e-08
6.26361e-09
4.0064e-08
6.46705e-09
3.53623e-08
6.50967e-09
3.07065e-08
6.39953e-09
2.62004e-08
6.15194e-09
2.19335e-08
5.78811e-09
1.79776e-08
5.33332e-09
1.43848e-08
4.81475e-09
1.11872e-08
4.25955e-09
8.39764e-09
3.69325e-09
6.0113e-09
3.13872e-09
4.00827e-09
2.61567e-09
2.35599e-09
2.14034e-09
1.01215e-09
1.72523e-09
-7.20206e-11
1.37862e-09
-9.48245e-10
1.10403e-09
-1.66736e-09
8.99819e-10
-2.27572e-09
7.59506e-10
-2.81241e-09
6.72698e-10
-3.30741e-09
6.26503e-10
-3.78094e-09
6.07245e-10
-4.24406e-09
6.02083e-10
-4.70008e-09
6.00225e-10
-5.14639e-09
5.93573e-10
-5.57651e-09
5.76864e-10
-5.98192e-09
5.474e-10
-6.35356e-09
5.04585e-10
-6.68295e-09
4.49374e-10
-6.96301e-09
3.83769e-10
-7.18844e-09
3.10386e-10
-7.35603e-09
2.32124e-10
-7.46463e-09
1.51912e-10
-7.51505e-09
7.25209e-11
-7.50987e-09
-3.45262e-12
-7.45322e-09
-7.41555e-11
-7.35033e-09
-1.37625e-10
-7.20736e-09
-1.9276e-10
-7.03098e-09
-2.3878e-10
-6.82808e-09
-2.75345e-10
-6.60549e-09
-3.02512e-10
-6.36978e-09
-3.2067e-10
-6.12699e-09
-3.30476e-10
-5.88257e-09
-3.32789e-10
-5.64123e-09
-3.28593e-10
-5.40695e-09
-3.18943e-10
-5.18292e-09
-3.049e-10
-4.97157e-09
-2.87493e-10
-4.77468e-09
-2.6768e-10
-4.59337e-09
-2.46324e-10
-4.42822e-09
-2.24176e-10
-4.27937e-09
-2.01874e-10
-4.14656e-09
-1.79937e-10
-4.02923e-09
-1.58775e-10
-3.9266e-09
-1.38697e-10
-3.83773e-09
-1.19922e-10
-3.76159e-09
-1.02591e-10
-3.69705e-09
-8.67818e-11
-3.643e-09
-7.25193e-11
-3.59833e-09
-5.97876e-11
-3.56195e-09
-4.85396e-11
-3.53282e-09
-3.87054e-11
-3.50999e-09
-3.01996e-11
-3.49254e-09
-2.29268e-11
-3.47964e-09
-1.67862e-11
-3.47055e-09
-1.16752e-11
-3.46458e-09
-7.48992e-12
-3.46112e-09
-4.12774e-12
-3.45963e-09
-1.4837e-12
-3.45967e-09
5.3687e-13
-3.46082e-09
1.99319e-12
-3.46277e-09
3.03001e-12
-3.46526e-09
3.71594e-12
-3.46808e-09
4.14155e-12
-3.47111e-09
4.39498e-12
-3.47428e-09
4.55937e-12
-3.47757e-09
4.70706e-12
-3.48099e-09
4.89122e-12
-3.48457e-09
5.13349e-12
-3.48833e-09
5.40772e-12
-3.4922e-09
5.6219e-12
-3.49599e-09
5.59851e-12
-3.4993e-09
5.05728e-12
-3.50144e-09
3.60087e-12
-3.50133e-09
7.20259e-13
-3.49742e-09
-4.24995e-12
-3.48764e-09
-1.20945e-11
-3.46914e-09
-2.37327e-11
-3.43829e-09
-4.03822e-11
-3.39021e-09
-6.37429e-11
-3.31799e-09
-9.68828e-11
-3.21133e-09
-1.46051e-10
-3.05153e-09
-2.21e-10
-3.72628e-10
-2.812e-09
7.81635e-11
-2.30736e-10
2.21296e-10
-4.87294e-10
3.58152e-10
-5.744e-10
4.32765e-10
-5.22706e-10
3.99833e-10
-3.58455e-10
2.2261e-10
-1.04571e-10
-1.28548e-10
2.19332e-10
-6.77381e-10
5.96895e-10
-1.44277e-09
1.01484e-09
-2.43967e-09
1.46273e-09
-3.67993e-09
1.93269e-09
-5.17303e-09
2.419e-09
-6.92656e-09
2.91774e-09
-8.94672e-09
3.42636e-09
-1.12385e-08
3.94327e-09
-1.38058e-08
4.46738e-09
-1.66513e-08
4.9977e-09
-1.97762e-08
5.53294e-09
-2.31799e-08
6.07111e-09
-2.68594e-08
6.60927e-09
-3.08088e-08
7.14324e-09
-3.50182e-08
7.66748e-09
-3.94739e-08
8.17503e-09
-4.41569e-08
8.65752e-09
-4.90432e-08
9.10535e-09
-5.41026e-08
9.50787e-09
-5.92995e-08
9.85366e-09
-6.45921e-08
1.01309e-08
-6.99332e-08
1.03277e-08
-7.52702e-08
1.04327e-08
-8.05463e-08
1.04351e-08
-8.57011e-08
1.03255e-08
-9.06717e-08
1.0096e-08
-9.5394e-08
9.74081e-09
-9.98038e-08
9.25622e-09
-1.03838e-07
8.64107e-09
-1.07437e-07
7.89682e-09
-1.10545e-07
7.02758e-09
-1.13109e-07
6.04015e-09
-1.15085e-07
4.94383e-09
-1.16435e-07
3.75027e-09
-1.17128e-07
2.47322e-09
-1.17142e-07
1.12814e-09
-1.16462e-07
-2.67911e-10
-1.15084e-07
-1.69712e-09
-1.1301e-07
-3.14069e-09
-1.10252e-07
-4.58006e-09
-1.06829e-07
-5.99713e-09
-1.02766e-07
-7.37464e-09
-9.80957e-08
-8.69652e-09
-9.28549e-08
-9.94828e-09
-8.70857e-08
-1.11173e-08
-8.0834e-08
-1.21932e-08
-7.41477e-08
-1.31676e-08
-6.70769e-08
-1.40349e-08
-5.96721e-08
-1.47914e-08
-5.19835e-08
-1.5436e-08
-4.40606e-08
-1.59692e-08
-3.59514e-08
-1.63933e-08
-2.77019e-08
-1.67118e-08
-1.9356e-08
-1.69288e-08
-1.09556e-08
-1.70483e-08
-2.54082e-09
-1.70741e-08
5.8492e-09
-1.70083e-08
1.41755e-08
-1.68518e-08
2.23989e-08
-1.66042e-08
3.04791e-08
-1.62636e-08
3.83736e-08
-1.5826e-08
4.60365e-08
-1.52851e-08
5.3418e-08
-1.46335e-08
6.04639e-08
-1.38624e-08
6.71148e-08
-1.29633e-08
7.33064e-08
-1.1928e-08
7.89704e-08
-1.07504e-08
8.40349e-08
-9.42701e-09
8.84262e-08
-7.95851e-09
9.20708e-08
-6.3506e-09
9.4898e-08
-4.61511e-09
9.68433e-08
-2.77072e-09
9.78518e-08
-8.43601e-10
9.78812e-08
1.13147e-09
9.69087e-08
3.11379e-09
9.49326e-08
5.05568e-09
9.19768e-08
6.90535e-09
8.80927e-08
8.60886e-09
8.3361e-08
1.01132e-08
7.78904e-08
1.13697e-08
7.18158e-08
1.23383e-08
6.52925e-08
1.29903e-08
5.84897e-08
1.33124e-08
5.15818e-08
1.33074e-08
4.47387e-08
1.2995e-08
3.81169e-08
1.241e-08
3.18512e-08
1.1599e-08
2.60491e-08
1.06168e-08
2.07874e-08
9.52132e-09
1.61108e-08
8.3698e-09
1.2034e-08
7.21558e-09
8.54371e-09
6.10592e-09
5.60354e-09
5.08051e-09
3.15841e-09
4.17036e-09
1.1404e-09
3.39663e-09
-5.25182e-10
2.76961e-09
-1.91361e-09
2.28824e-09
-3.09484e-09
1.94074e-09
-4.12895e-09
1.70681e-09
-5.06323e-09
1.56078e-09
-5.93106e-09
1.47507e-09
-6.75247e-09
1.42349e-09
-7.53606e-09
1.38382e-09
-8.28161e-09
1.33912e-09
-8.98286e-09
1.27812e-09
-9.63023e-09
1.19477e-09
-1.0213e-08
1.08734e-09
-1.07209e-08
9.57339e-10
-1.11457e-08
8.08519e-10
-1.14813e-08
6.45956e-10
-1.17245e-08
4.75363e-10
-1.18751e-08
3.02556e-10
-1.19357e-08
1.33054e-10
-1.19109e-08
-2.81833e-11
-1.1808e-08
-1.77057e-10
-1.16355e-08
-3.10215e-10
-1.14029e-08
-4.25337e-10
-1.11207e-08
-5.21005e-10
-1.07993e-08
-5.96672e-10
-1.04493e-08
-6.52574e-10
-1.00803e-08
-6.89611e-10
-9.70159e-09
-7.09215e-10
-9.32117e-09
-7.13205e-10
-8.94611e-09
-7.03653e-10
-8.5823e-09
-6.82754e-10
-8.23448e-09
-6.52719e-10
-7.90629e-09
-6.15679e-10
-7.60035e-09
-5.73621e-10
-7.31834e-09
-5.28332e-10
-7.06114e-09
-4.81377e-10
-6.82894e-09
-4.34079e-10
-6.62135e-09
-3.87523e-10
-6.43756e-09
-3.42569e-10
-6.27639e-09
-2.99865e-10
-6.13643e-09
-2.59876e-10
-6.01612e-09
-2.22905e-10
-5.91378e-09
-1.89123e-10
-5.82771e-09
-1.58589e-10
-5.75622e-09
-1.31277e-10
-5.69766e-09
-1.07096e-10
-5.65046e-09
-8.59045e-11
-5.61314e-09
-6.75278e-11
-5.58429e-09
-5.17693e-11
-5.56266e-09
-3.84199e-11
-5.54707e-09
-2.72644e-11
-5.53647e-09
-1.80874e-11
-5.52993e-09
-1.06753e-11
-5.52659e-09
-4.81827e-12
-5.52574e-09
-3.13202e-13
-5.52677e-09
3.02552e-12
-5.52916e-09
5.41376e-12
-5.53247e-09
7.03426e-12
-5.53641e-09
8.0749e-12
-5.54073e-09
8.71735e-12
-5.5453e-09
9.13069e-12
-5.55005e-09
9.4595e-12
-5.55497e-09
9.80545e-12
-5.56004e-09
1.02011e-11
-5.56521e-09
1.0577e-11
-5.57031e-09
1.07238e-11
-5.57496e-09
1.0253e-11
-5.57847e-09
8.56169e-12
-5.57967e-09
4.80712e-12
-5.57685e-09
-2.10379e-12
-5.56757e-09
-1.3532e-11
-5.54857e-09
-3.10923e-11
-5.51559e-09
-5.67109e-11
-5.4632e-09
-9.27683e-11
-5.38446e-09
-1.42487e-10
-5.27032e-09
-2.11027e-10
-5.10883e-09
-3.07533e-10
-4.88165e-09
-4.48188e-10
-6.63562e-10
-4.59071e-09
1.6443e-11
-2.47179e-10
-5.97146e-12
-4.64879e-10
-1.26107e-10
-4.54265e-10
-3.91008e-10
-2.57805e-10
-8.38922e-10
8.94599e-11
-1.50113e-09
5.57635e-10
-2.4035e-09
1.1217e-09
-3.56754e-09
1.76093e-09
-5.01129e-09
2.45858e-09
-6.74998e-09
3.20143e-09
-8.79654e-09
3.97925e-09
-1.11619e-08
4.78435e-09
-1.38551e-08
5.61094e-09
-1.68834e-08
6.45463e-09
-2.0252e-08
7.31187e-09
-2.39639e-08
8.17932e-09
-2.80195e-08
9.05335e-09
-3.24161e-08
9.9295e-09
-3.7147e-08
1.0802e-08
-4.22012e-08
1.16634e-08
-4.75625e-08
1.25045e-08
-5.32089e-08
1.33139e-08
-5.91121e-08
1.40783e-08
-6.52371e-08
1.47826e-08
-7.15422e-08
1.54104e-08
-7.79785e-08
1.59442e-08
-8.44909e-08
1.63661e-08
-9.10185e-08
1.66585e-08
-9.74953e-08
1.68045e-08
-1.03851e-07
1.67887e-08
-1.10014e-07
1.65979e-08
-1.1591e-07
1.62214e-08
-1.21466e-07
1.56516e-08
-1.26609e-07
1.48846e-08
-1.31273e-07
1.39197e-08
-1.35392e-07
1.27606e-08
-1.3891e-07
1.14144e-08
-1.41774e-07
9.89194e-09
-1.43942e-07
8.20766e-09
-1.45377e-07
6.37903e-09
-1.46053e-07
4.42628e-09
-1.45952e-07
2.3719e-09
-1.45064e-07
2.40331e-10
-1.43389e-07
-1.94265e-09
-1.40936e-07
-4.1507e-09
-1.37719e-07
-6.3575e-09
-1.33762e-07
-8.53732e-09
-1.29093e-07
-1.06654e-08
-1.2375e-07
-1.27184e-08
-1.17771e-07
-1.4675e-08
-1.11203e-07
-1.65164e-08
-1.04094e-07
-1.82264e-08
-9.64952e-08
-1.9792e-08
-8.84595e-08
-2.12034e-08
-8.00403e-08
-2.24541e-08
-7.12908e-08
-2.35408e-08
-6.22634e-08
-2.44635e-08
-5.30082e-08
-2.52244e-08
-4.35733e-08
-2.58282e-08
-3.4004e-08
-2.62811e-08
-2.4343e-08
-2.65898e-08
-1.463e-08
-2.67612e-08
-4.90287e-09
-2.68012e-08
4.80272e-09
-2.67139e-08
1.44516e-08
-2.65007e-08
2.40078e-08
-2.61604e-08
3.3434e-08
-2.56898e-08
4.26901e-08
-2.5082e-08
5.17322e-08
-2.43273e-08
6.05116e-08
-2.34129e-08
6.89738e-08
-2.23246e-08
7.70579e-08
-2.10474e-08
8.46963e-08
-1.95664e-08
9.18149e-08
-1.7869e-08
9.83339e-08
-1.59459e-08
1.04168e-07
-1.3793e-08
1.0923e-07
-1.14126e-08
1.13431e-07
-8.81585e-09
1.16684e-07
-6.02328e-09
1.18907e-07
-3.06649e-09
1.20027e-07
1.09654e-11
1.19988e-07
3.15323e-09
1.18751e-07
6.29266e-09
1.16304e-07
9.35206e-09
1.12666e-07
1.22472e-08
1.07888e-07
1.48905e-08
1.02062e-07
1.71961e-08
9.53142e-08
1.9086e-08
8.78077e-08
2.04968e-08
7.97348e-08
2.13853e-08
7.1308e-08
2.17343e-08
6.27486e-08
2.15544e-08
5.42736e-08
2.0885e-08
4.60827e-08
1.97899e-08
3.8347e-08
1.83525e-08
3.12007e-08
1.66676e-08
2.47364e-08
1.48341e-08
1.90039e-08
1.29481e-08
1.40126e-08
1.10972e-08
9.73624e-09
9.35689e-09
6.11923e-09
7.78737e-09
3.08486e-09