/*--------------------------------*- C++ -*----------------------------------*\
  =========                 |
  \\      /  F ield         | OpenFOAM: The Open Source CFD Toolbox
   \\    /   O peration     | Website:  https://openfoam.org
    \\  /    A nd           | Version:  8
     \\/     M anipulation  |
\*---------------------------------------------------------------------------*/
FoamFile
{
    version     2.0;
    format      ascii;
    class       volVectorField;
    location    "0.8";
    object      U;
}
// * * * * * * * * * * * * * * * * * * * * * * * * * * * * * * * * * * * * * //

dimensions      [0 1 -1 0 0 0 0];

internalField   nonuniform List<vector> 
12225
(
(-8.23699e-06 1.11933e-06 0)
(-3.89416e-06 -6.22304e-07 0)
(3.18054e-05 -1.58853e-06 0)
(8.96633e-05 -2.44207e-06 0)
(0.000165691 -3.1778e-06 0)
(0.000256597 -3.88356e-06 0)
(0.000360537 -4.58802e-06 0)
(0.000476225 -5.32105e-06 0)
(0.000602832 -6.11351e-06 0)
(0.00073996 -7.01671e-06 0)
(0.000887794 -8.12082e-06 0)
(0.00104732 -9.58489e-06 0)
(0.00122056 -1.16981e-05 0)
(0.00141015 -1.49232e-05 0)
(0.00161657 -1.90482e-05 0)
(0.00183234 -1.83652e-05 0)
(0.00197671 -2.51004e-05 0)
(0.000219284 0.00120945 0)
(-1.68627e-05 2.87588e-06 0)
(6.07263e-06 -9.6965e-06 0)
(0.000114168 -2.21315e-05 0)
(0.000285612 -3.29347e-05 0)
(0.000509288 -4.26316e-05 0)
(0.000775886 -5.17786e-05 0)
(0.00107965 -6.07261e-05 0)
(0.00141622 -6.97011e-05 0)
(0.00178226 -7.89058e-05 0)
(0.00217514 -8.86101e-05 0)
(0.00259291 -9.92081e-05 0)
(0.00303396 -0.000111196 0)
(0.00349556 -0.000124865 0)
(0.00396822 -0.000138753 0)
(0.00441894 -0.00014201 0)
(0.00473553 -7.65714e-05 0)
(0.00459346 0.000307815 0)
(0.00118373 0.00302014 0)
(-1.95489e-05 3.39583e-06 0)
(3.23382e-05 -3.0943e-05 0)
(0.000216426 -6.67802e-05 0)
(0.000502411 -9.8312e-05 0)
(0.00087291 -0.00012682 0)
(0.001313 -0.000153619 0)
(0.0018127 -0.000179593 0)
(0.00236395 -0.000205241 0)
(0.00295983 -0.000230903 0)
(0.00359377 -0.0002569 0)
(0.00425886 -0.000283477 0)
(0.00494603 -0.000310262 0)
(0.00563927 -0.000334318 0)
(0.00630228 -0.000343662 0)
(0.00684506 -0.000294302 0)
(0.00702669 -2.6611e-05 0)
(0.00633315 0.0010267 0)
(0.00229392 0.0051951 0)
(-1.77486e-05 1.55218e-07 0)
(7.27009e-05 -6.81493e-05 0)
(0.000336254 -0.000140574 0)
(0.000736777 -0.000205014 0)
(0.00125152 -0.00026354 0)
(0.00186042 -0.000318393 0)
(0.00254898 -0.000371114 0)
(0.00330479 -0.000422417 0)
(0.00411617 -0.000472537 0)
(0.00497081 -0.000521309 0)
(0.00585389 -0.000567713 0)
(0.00674431 -0.000608121 0)
(0.00760604 -0.00063115 0)
(0.00836762 -0.000603144 0)
(0.00887867 -0.000425436 0)
(0.00880714 0.00019093 0)
(0.0075932 0.00208303 0)
(0.00350666 0.00751227 0)
(-1.27078e-05 -9.78271e-06 0)
(0.000124575 -0.00012493 0)
(0.00047037 -0.000247191 0)
(0.000984092 -0.000357065 0)
(0.00163839 -0.000457194 0)
(0.00240854 -0.000550752 0)
(0.00327534 -0.000639872 0)
(0.00422136 -0.000725231 0)
(0.00522906 -0.00080641 0)
(0.00627857 -0.00088175 0)
(0.00734464 -0.000947103 0)
(0.00839075 -0.000992113 0)
(0.00935727 -0.000990609 0)
(0.0101374 -0.000876715 0)
(0.0105342 -0.000484708 0)
(0.0101847 0.000595668 0)
(0.00860076 0.0033463 0)
(0.00477743 0.00974286 0)
(-5.46765e-06 -2.91878e-05 0)
(0.000184975 -0.000205215 0)
(0.000614439 -0.000390691 0)
(0.0012382 -0.000558748 0)
(0.00202484 -0.000712276 0)
(0.00294546 -0.000855236 0)
(0.00397602 -0.000990081 0)
(0.00509352 -0.00111696 0)
(0.00627356 -0.00123394 0)
(0.00748732 -0.00133639 0)
(0.00869739 -0.00141461 0)
(0.00985029 -0.00144752 0)
(0.0108632 -0.00138824 0)
(0.0116012 -0.00113188 0)
(0.0118446 -0.000446031 0)
(0.0112543 0.00116711 0)
(0.00947732 0.00471023 0)
(0.00606907 0.0117941 0)
(3.07947e-06 -6.06045e-05 0)
(0.000250543 -0.000313014 0)
(0.000763078 -0.000575238 0)
(0.00149139 -0.000814257 0)
(0.00240022 -0.00103294 0)
(0.00345696 -0.00123576 0)
(0.00463273 -0.001425 0)
(0.0058986 -0.00159954 0)
(0.00722264 -0.00175477 0)
(0.00856632 -0.00188131 0)
(0.0098795 -0.00196117 0)
(0.0110925 -0.00195886 0)
(0.0121036 -0.00180265 0)
(0.0127618 -0.00134752 0)
(0.0128506 -0.000306031 0)
(0.0120925 0.00186304 0)
(0.0102847 0.00609376 0)
(0.00735574 0.013634 0)
(1.21577e-05 -0.000106275 0)
(0.000317594 -0.000452035 0)
(0.000909901 -0.000804541 0)
(0.00173436 -0.00112699 0)
(0.00275189 -0.00142215 0)
(0.0039266 -0.00169459 0)
(0.00522489 -0.00194578 0)
(0.00661185 -0.00217239 0)
(0.00804789 -0.0023657 0)
(0.0094848 -0.00250964 0)
(0.0108606 -0.00257543 0)
(0.0120924 -0.00251047 0)
(0.0130668 -0.00221692 0)
(0.0136306 -0.00151419 0)
(0.0135923 -7.89509e-05 0)
(0.0127542 0.00263074 0)
(0.0110472 0.00742872 0)
(0.00861561 0.0152414 0)
(2.10925e-05 -0.000167968 0)
(0.000382208 -0.000625296 0)
(0.00104764 -0.00108136 0)
(0.00195639 -0.001499 0)
(0.00306539 -0.00188102 0)
(0.00433589 -0.00223169 0)
(0.00572996 -0.00255085 0)
(0.00720703 -0.00283181 0)
(0.00872034 -0.0030603 0)
(0.010213 -0.00321171 0)
(0.0116137 -0.00324459 0)
(0.0128307 -0.00308811 0)
(0.0137478 -0.0026203 0)
(0.0142229 -0.00163414 0)
(0.0141033 0.00020768 0)
(0.0132726 0.00341345 0)
(0.0117638 0.00865583 0)
(0.00982491 0.0165962 0)
(2.92868e-05 -0.000246756 0)
(0.000440319 -0.000834637 0)
(0.00116833 -0.00140696 0)
(0.0021455 -0.00193038 0)
(0.00332468 -0.00240825 0)
(0.00466471 -0.00284412 0)
(0.00612401 -0.00323534 0)
(0.00765713 -0.0035707 0)
(0.00921134 -0.00382898 0)
(0.0107232 -0.00397562 0)
(0.0121152 -0.00395556 0)
(0.0132931 -0.00368062 0)
(0.0141458 -0.00300944 0)
(0.0145525 -0.00172044 0)
(0.0144057 0.000516973 0)
(0.0136599 0.00415429 0)
(0.0124162 0.00972331 0)
(0.0109549 0.0176783 0)
(3.62113e-05 -0.000342897 0)
(0.000487845 -0.00108014 0)
(0.00126357 -0.00178039 0)
(0.00228887 -0.00241855 0)
(0.00351263 -0.00299935 0)
(0.00489192 -0.00352535 0)
(0.00638244 -0.00399059 0)
(0.0079352 -0.00437826 0)
(0.00949338 -0.0046591 0)
(0.0109898 -0.00478781 0)
(0.0123451 -0.00469607 0)
(0.0134683 -0.00428093 0)
(0.0142608 -0.00338845 0)
(0.0146285 -0.00179495 0)
(0.0145083 0.000806741 0)
(0.0139103 0.00479908 0)
(0.0129733 0.010586 0)
(0.0119699 0.0184662 0)
(4.10932e-05 -0.000446405 0)
(0.000518225 -0.0013362 0)
(0.00131988 -0.00216296 0)
(0.0023665 -0.00291255 0)
(0.00360374 -0.00359204 0)
(0.0049878 -0.00420308 0)
(0.00647314 -0.00473603 0)
(0.00800914 -0.00516822 0)
(0.00953752 -0.00546246 0)
(0.0109907 -0.00556365 0)
(0.0122919 -0.00539268 0)
(0.0133576 -0.00483671 0)
(0.0141052 -0.00373721 0)
(0.0144668 -0.0018787 0)
(0.0144146 0.00101406 0)
(0.0139943 0.00525767 0)
(0.0133582 0.0111559 0)
(0.0127547 0.0189021 0)
(4.48388e-05 -0.000560446 0)
(0.000534857 -0.00161298 0)
(0.00134374 -0.00257093 0)
(0.00238895 -0.00343421 0)
(0.00361339 -0.00421319 0)
(0.00497326 -0.00490869 0)
(0.00642307 -0.00550714 0)
(0.00791231 -0.0059797 0)
(0.00938339 -0.00628122 0)
(0.0107712 -0.0063476 0)
(0.0120046 -0.00609084 0)
(0.0130109 -0.00539207 0)
(0.0137253 -0.00409392 0)
(0.0141049 -0.001996 0)
(0.0141506 0.00114013 0)
(0.0139305 0.00556773 0)
(0.0135975 0.0115065 0)
(0.0133696 0.0190715 0)
(4.73005e-05 -0.000701498 0)
(0.000533193 -0.00195205 0)
(0.00132236 -0.00306386 0)
(0.00233233 -0.00405801 0)
(0.00350436 -0.00494993 0)
(0.00479603 -0.0057397 0)
(0.00616389 -0.00640917 0)
(0.00755997 -0.00692244 0)
(0.00893058 -0.00722581 0)
(0.0102168 -0.00724638 0)
(0.0113577 -0.00688923 0)
(0.0122957 -0.00603365 0)
(0.0129866 -0.00453033 0)
(0.0134125 -0.00220268 0)
(0.0135978 0.00114323 0)
(0.0136233 0.0056953 0)
(0.0136308 0.0115972 0)
(0.0138035 0.018902 0)
(4.69381e-05 -0.000868027 0)
(0.000500832 -0.00234986 0)
(0.00122719 -0.00363496 0)
(0.00214873 -0.00477311 0)
(0.00320836 -0.00578746 0)
(0.0043674 -0.00667772 0)
(0.00558749 -0.007421 0)
(0.00682688 -0.0079741 0)
(0.00803997 -0.00827515 0)
(0.00917885 -0.00824413 0)
(0.010197 -0.00778269 0)
(0.0110556 -0.00677403 0)
(0.0117321 -0.00508431 0)
(0.01223 -0.0025681 0)
(0.0125896 0.000919966 0)
(0.0128936 0.00550555 0)
(0.0132642 0.0112683 0)
(0.0138481 0.0182154 0)
(4.17547e-05 -0.00104983 0)
(0.00042223 -0.00278179 0)
(0.00102266 -0.0042485 0)
(0.00177851 -0.00553371 0)
(0.00264066 -0.00667128 0)
(0.00357803 -0.00766166 0)
(0.00456147 -0.00847791 0)
(0.00556011 -0.00907056 0)
(0.00654141 -0.00937141 0)
(0.00747314 -0.00929657 0)
(0.00832716 -0.00874908 0)
(0.00908477 -0.00762207 0)
(0.00974314 -0.00580336 0)
(0.0103219 -0.0031826 0)
(0.0108677 0.000338085 0)
(0.0114558 0.00483015 0)
(0.0121844 0.0103236 0)
(0.0131647 0.016794 0)
(2.95971e-05 -0.00122022 0)
(0.000280918 -0.00318449 0)
(0.000671512 -0.00481551 0)
(0.00115932 -0.00623067 0)
(0.00171257 -0.00747652 0)
(0.00231323 -0.0085559 0)
(0.00294609 -0.00943983 0)
(0.00359602 -0.0100752 0)
(0.00424824 -0.0103912 0)
(0.00489007 -0.0103043 0)
(0.00551382 -0.00972414 0)
(0.00612036 -0.00855841 0)
(0.006723 -0.00671938 0)
(0.00735058 -0.00413079 0)
(0.00804876 -0.000735834 0)
(0.0088784 0.00349458 0)
(0.00991247 0.00855532 0)
(0.0112308 0.0144027 0)
(8.61434e-06 -0.00132553 0)
(6.56797e-05 -0.00343188 0)
(0.000149885 -0.00516092 0)
(0.000251902 -0.00665292 0)
(0.000367737 -0.00796523 0)
(0.000498129 -0.00910462 0)
(0.000645831 -0.0100433 0)
(0.000815049 -0.010729 0)
(0.00101181 -0.011093 0)
(0.00124489 -0.0110572 0)
(0.00152719 -0.0105413 0)
(0.00187731 -0.00946955 0)
(0.00232086 -0.00777663 0)
(0.00289106 -0.00541398 0)
(0.00362824 -0.00235483 0)
(0.00457772 0.00140179 0)
(0.00578796 0.00582867 0)
(0.00731209 0.0108735 0)
(-2.23154e-05 -0.00127611 0)
(-0.000213816 -0.00331435 0)
(-0.000515813 -0.00499293 0)
(-0.000898006 -0.00644762 0)
(-0.00133044 -0.00773704 0)
(-0.00179109 -0.00887174 0)
(-0.00225838 -0.00982923 0)
(-0.00270846 -0.0105639 0)
(-0.0031147 -0.0110152 0)
(-0.00344772 -0.0111155 0)
(-0.00367554 -0.0107971 0)
(-0.00376396 -0.00999926 0)
(-0.00367711 -0.00867337 0)
(-0.00337848 -0.00678802 0)
(-0.00283237 -0.00433193 0)
(-0.0020053 -0.0013155 0)
(-0.00086608 0.00222955 0)
(0.000615632 0.00625036 0)
(-4.3574e-05 -0.00104878 0)
(-0.000422791 -0.00277066 0)
(-0.00102174 -0.00422018 0)
(-0.00178266 -0.00549521 0)
(-0.00265382 -0.00664144 0)
(-0.00360097 -0.00766977 0)
(-0.00459168 -0.0085647 0)
(-0.00559039 -0.00929095 0)
(-0.00655786 -0.00980007 0)
(-0.00745156 -0.0100369 0)
(-0.00822679 -0.00994588 0)
(-0.00883815 -0.00947697 0)
(-0.0092412 -0.00859055 0)
(-0.00939433 -0.00726131 0)
(-0.00926073 -0.00548061 0)
(-0.00880979 -0.00325739 0)
(-0.00801609 -0.000617737 0)
(-0.00685669 0.00239651 0)
(-5.17554e-05 -0.000794023 0)
(-0.000517414 -0.00216503 0)
(-0.00126094 -0.00335577 0)
(-0.00221421 -0.00441896 0)
(-0.00331846 -0.00538518 0)
(-0.00453589 -0.00626466 0)
(-0.00583056 -0.00704815 0)
(-0.00716308 -0.0077102 0)
(-0.00848981 -0.00821385 0)
(-0.00976332 -0.0085156 0)
(-0.0109336 -0.00857065 0)
(-0.0119501 -0.00833776 0)
(-0.0127635 -0.00778344 0)
(-0.0133284 -0.00688529 0)
(-0.0136053 -0.00563398 0)
(-0.0135623 -0.00403406 0)
(-0.0131745 -0.00210363 0)
(-0.0124216 0.000126468 0)
(-5.02411e-05 -0.000548891 0)
(-0.000528628 -0.00157729 0)
(-0.00130863 -0.00250676 0)
(-0.00232288 -0.00334787 0)
(-0.00351414 -0.00411802 0)
(-0.00484539 -0.0048267 0)
(-0.00628113 -0.00547 0)
(-0.00778265 -0.00603127 0)
(-0.009307 -0.00648402 0)
(-0.0108071 -0.00679571 0)
(-0.0122327 -0.00693163 0)
(-0.0135323 -0.00685888 0)
(-0.0146553 -0.00654968 0)
(-0.0155545 -0.00598417 0)
(-0.0161882 -0.00515213 0)
(-0.0165223 -0.0040538 0)
(-0.01653 -0.00269986 0)
(-0.0161909 -0.00111126 0)
(-4.16996e-05 -0.000345099 0)
(-0.0004791 -0.00107782 0)
(-0.00121686 -0.00177089 0)
(-0.00219479 -0.00240396 0)
(-0.00336139 -0.00298551 0)
(-0.00468217 -0.00352446 0)
(-0.00612411 -0.00402081 0)
(-0.00765188 -0.00446483 0)
(-0.00922642 -0.00483871 0)
(-0.0108045 -0.00511932 0)
(-0.0123396 -0.00528106 0)
(-0.0137828 -0.00529884 0)
(-0.0150853 -0.00515065 0)
(-0.0162007 -0.00481971 0)
(-0.017087 -0.00429596 0)
(-0.0177085 -0.00357679 0)
(-0.0180369 -0.00266723 0)
(-0.0180505 -0.00158022 0)
(-2.89458e-05 -0.000193483 0)
(-0.000393053 -0.000690742 0)
(-0.00103998 -0.00118398 0)
(-0.00191889 -0.00163609 0)
(-0.00298504 -0.00205101 0)
(-0.00420686 -0.00243701 0)
(-0.00555485 -0.00279648 0)
(-0.00699846 -0.00312449 0)
(-0.00850429 -0.00340985 0)
(-0.0100352 -0.00363697 0)
(-0.0115503 -0.00378796 0)
(-0.0130063 -0.00384472 0)
(-0.0143588 -0.00379078 0)
(-0.0155645 -0.00361293 0)
(-0.0165832 -0.00330233 0)
(-0.0173797 -0.00285517 0)
(-0.0179252 -0.00227289 0)
(-0.0181975 -0.0015626 0)
(-1.45713e-05 -9.20922e-05 0)
(-0.000291788 -0.000412478 0)
(-0.000824384 -0.000744877 0)
(-0.00157012 -0.00104858 0)
(-0.00249035 -0.001326 0)
(-0.00355657 -0.00158445 0)
(-0.00474331 -0.00182726 0)
(-0.00602548 -0.00205244 0)
(-0.00737604 -0.00225345 0)
(-0.00876478 -0.0024204 0)
(-0.010158 -0.00254154 0)
(-0.0115191 -0.00260464 0)
(-0.01281 -0.0025982 0)
(-0.0139925 -0.0025126 0)
(-0.0150303 -0.00234089 0)
(-0.0158908 -0.00207931 0)
(-0.0165459 -0.00172742 0)
(-0.0169743 -0.00128853 0)
(-8.3275e-07 -3.23849e-05 0)
(-0.000192093 -0.00022594 0)
(-0.000605028 -0.000434352 0)
(-0.00120388 -0.000622859 0)
(-0.00195531 -0.000793759 0)
(-0.00283418 -0.000952954 0)
(-0.00381952 -0.0011036 0)
(-0.00489176 -0.00124526 0)
(-0.0060303 -0.00137439 0)
(-0.00721194 -0.00148521 0)
(-0.0084104 -0.00157057 0)
(-0.0095966 -0.00162284 0)
(-0.0107395 -0.00163467 0)
(-0.0118075 -0.00159968 0)
(-0.0127696 -0.00151299 0)
(-0.0135973 -0.00137159 0)
(-0.0142655 -0.00117442 0)
(-0.0147547 -0.000922561 0)
(1.02827e-05 -3.38071e-06 0)
(-0.000106069 -0.000109838 0)
(-0.000405407 -0.000227212 0)
(-0.000856676 -0.000331649 0)
(-0.0014317 -0.000425429 0)
(-0.00210944 -0.000512701 0)
(-0.00287369 -0.000595822 0)
(-0.00371022 -0.000674949 0)
(-0.00460439 -0.00074838 0)
(-0.0055396 -0.000813069 0)
(-0.00649672 -0.000865134 0)
(-0.00745411 -0.000900329 0)
(-0.00838822 -0.000914479 0)
(-0.00927451 -0.000903851 0)
(-0.0100885 -0.000865464 0)
(-0.0108071 -0.000797299 0)
(-0.0114091 -0.000698388 0)
(-0.0118786 -0.000568762 0)
(1.69138e-05 5.92284e-06 0)
(-4.16067e-05 -4.40443e-05 0)
(-0.000239231 -9.92836e-05 0)
(-0.000549457 -0.000147362 0)
(-0.000950037 -0.000190051 0)
(-0.00142499 -0.000229722 0)
(-0.00196297 -0.000267745 0)
(-0.00255464 -0.000304358 0)
(-0.0031906 -0.000338883 0)
(-0.00386013 -0.000369981 0)
(-0.00455059 -0.000395895 0)
(-0.00524737 -0.000414662 0)
(-0.00593424 -0.000424314 0)
(-0.00659395 -0.000423053 0)
(-0.007209 -0.000409386 0)
(-0.0077624 -0.000382237 0)
(-0.00823839 -0.000340984 0)
(-0.00862484 -0.000285317 0)
(1.71582e-05 5.33512e-06 0)
(-3.108e-06 -1.1988e-05 0)
(-0.000112684 -3.03487e-05 0)
(-0.000291712 -4.58517e-05 0)
(-0.000525386 -5.94137e-05 0)
(-0.000803638 -7.19941e-05 0)
(-0.00111989 -8.4139e-05 0)
(-0.00146907 -9.59828e-05 0)
(-0.0018462 -0.00010734 0)
(-0.00224552 -0.0001178 0)
(-0.00266007 -0.000126803 0)
(-0.00308163 -0.000133713 0)
(-0.00350085 -0.00013788 0)
(-0.00390763 -0.000138698 0)
(-0.00429151 -0.000135646 0)
(-0.00464219 -0.000128327 0)
(-0.00494979 -0.000116463 0)
(-0.00520669 -9.97518e-05 0)
(9.19825e-06 1.88103e-06 0)
(7.8448e-06 -5.75525e-07 0)
(-2.65442e-05 -2.09757e-06 0)
(-8.51775e-05 -3.29666e-06 0)
(-0.000162438 -4.3007e-06 0)
(-0.000254741 -5.22887e-06 0)
(-0.000359955 -6.14129e-06 0)
(-0.000476569 -7.0576e-06 0)
(-0.000603135 -7.96862e-06 0)
(-0.000737941 -8.84552e-06 0)
(-0.00087885 -9.64597e-06 0)
(-0.00102326 -1.03204e-05 0)
(-0.00116813 -1.08158e-05 0)
(-0.00131013 -1.1081e-05 0)
(-0.00144572 -1.10702e-05 0)
(-0.00157135 -1.07505e-05 0)
(-0.0016835 -1.00632e-05 0)
(-0.0017794 -8.93228e-06 0)
(1.39395e-05 -3.2281e-05 7.537e-24)
(0.000100447 -7.63571e-05 -1.0007e-23)
(0.000241075 -0.000102371 0)
(0.00041299 -0.000113214 0)
(0.000587922 -0.000113332 0)
(0.000745557 -0.00010606 8.31198e-24)
(0.000871682 -9.40117e-05 0)
(0.00095621 -7.92279e-05 0)
(0.000992185 -6.32065e-05 0)
(0.000975087 -4.69594e-05 0)
(0.000902215 -3.10905e-05 -5.27422e-26)
(0.000772082 -1.59085e-05 0)
(0.000583922 -1.49392e-06 0)
(0.000337308 1.22386e-05 0)
(3.18658e-05 2.54858e-05 0)
(-0.000332941 3.85132e-05 1.30437e-23)
(-0.000757924 5.16214e-05 0)
(-0.00124421 6.51149e-05 0)
(-0.00179321 7.92747e-05 0)
(-0.00240653 9.43375e-05 0)
(-0.00308586 0.000110481 0)
(-0.00383275 0.000127813 0)
(-0.0046484 0.000146367 0)
(-0.0055335 0.000166096 4.02622e-23)
(-0.00648792 0.000186871 -4.38168e-23)
(-0.00751051 0.000208485 4.72815e-23)
(-0.00859893 0.000230652 5.06001e-23)
(-0.00974939 0.00025301 0)
(-0.0109565 0.000275125 0)
(-0.0122133 0.000296497 -5.90142e-23)
(-0.0135108 0.000316567 -6.1053e-23)
(-0.0148383 0.000334729 0)
(-0.0161834 0.000350342 0)
(-0.0175318 0.00036275 -6.37051e-23)
(-0.0188677 0.000371302 0)
(-0.0201739 0.000375374 0)
(-0.021432 0.000374401 5.94154e-23)
(-0.0226228 0.000367901 0)
(-0.0237269 0.000355502 5.17636e-23)
(-0.0247246 0.000336972 9.27277e-23)
(-0.0255968 0.000312235 0)
(-0.0263255 0.000281391 0)
(-0.0268939 0.000244715 0)
(-0.027287 0.000202655 0)
(-0.0274923 0.000155876 0)
(-0.0274995 0.000105332 -1.511e-23)
(-0.027301 5.16427e-05 -3.91038e-23)
(-0.0268931 -4.12461e-06 -6.42234e-23)
(-0.026275 -6.0775e-05 0)
(-0.025449 -0.000117163 1.16588e-22)
(-0.0244205 -0.000172191 0)
(-0.0231981 -0.000224826 -1.6946e-22)
(-0.0217928 -0.000274138 -1.95162e-22)
(-0.020218 -0.000319334 0)
(-0.0184889 -0.000359779 0)
(-0.0166223 -0.000395012 0)
(-0.0146358 -0.000424746 -2.84506e-22)
(-0.0125478 -0.000448857 0)
(-0.0103765 -0.000467371 0)
(-0.00814012 -0.000480428 0)
(-0.00585653 -0.000488251 0)
(-0.00354294 -0.000491086 0)
(-0.00121619 -0.00048907 0)
(0.00110741 -0.000482097 0)
(0.0034126 -0.000470344 0)
(0.00568352 -0.00045432 3.25916e-22)
(0.00790411 -0.000434309 0)
(0.0100582 -0.00041038 0)
(0.012129 -0.000382508 -2.77703e-22)
(0.0140989 -0.000350633 -2.56299e-22)
(0.0159492 -0.00031471 0)
(0.0176605 -0.000274754 2.07068e-22)
(0.0192124 -0.000230891 -1.79897e-22)
(0.0205842 -0.000183406 0)
(0.0217554 -0.000132777 1.22367e-22)
(0.0227065 -7.97036e-05 0)
(0.0234197 -2.51279e-05 0)
(0.0238801 2.97286e-05 -3.47515e-23)
(0.0240767 8.34792e-05 0)
(0.0240034 0.00013496 -1.90377e-23)
(0.0236607 0.000182412 0)
(0.0230553 0.000224391 6.49386e-23)
(0.0222008 0.000259609 8.40512e-23)
(0.0211183 0.000287018 1.00281e-22)
(0.0198357 0.000305892 2.26995e-22)
(0.0183869 0.000315918 -2.47343e-22)
(0.0168108 0.000317227 0)
(0.0151493 0.000310386 0)
(0.0134456 0.000296353 0)
(0.0117421 0.000276388 -2.73329e-22)
(0.0100781 0.000251946 -2.68682e-22)
(0.00848859 0.000224552 2.60994e-22)
(0.00700227 0.000195675 0)
(0.00564114 0.000166624 -2.39478e-22)
(0.00442005 0.000138475 -2.27016e-22)
(0.00334692 0.000112041 -2.14197e-22)
(0.00242337 8.78877e-05 0)
(0.00164549 6.63817e-05 0)
(0.00100468 4.77585e-05 0)
(0.000488494 3.2176e-05 -1.67388e-22)
(8.13616e-05 1.97394e-05 0)
(-0.00023451 1.04873e-05 0)
(-0.00047813 4.34344e-06 1.42964e-22)
(-0.000668515 1.06713e-06 0)
(-0.000823399 2.46046e-07 0)
(-0.000958073 1.32546e-06 1.29128e-22)
(-0.00108451 3.671e-06 0)
(-0.00121095 6.65002e-06 0)
(-0.00134195 9.70693e-06 -1.22696e-22)
(-0.00147883 1.24123e-05 -1.21386e-22)
(-0.0016204 1.44811e-05 0)
(-0.00176372 1.5764e-05 1.19103e-22)
(-0.00190494 1.62232e-05 0)
(-0.00203983 1.59011e-05 -1.16589e-22)
(-0.00216436 1.48922e-05 0)
(-0.00227498 1.33194e-05 -1.13383e-22)
(-0.00236881 1.13175e-05 -1.11474e-22)
(-0.0024438 9.02227e-06 0)
(-0.00249871 6.56199e-06 0)
(-0.00253309 4.04716e-06 0)
(-0.0025473 1.58159e-06 0)
(-0.00254227 -6.72828e-07 0)
(-0.00251948 -2.73864e-06 0)
(-0.00248091 -4.54645e-06 0)
(-0.0024288 -6.05281e-06 -9.16534e-23)
(-0.00236554 -7.24244e-06 8.91379e-23)
(-0.00229362 -8.11629e-06 0)
(-0.00221548 -8.68833e-06 0)
(-0.00213341 -8.98282e-06 0)
(-0.00204955 -9.03143e-06 0)
(-0.00196577 -8.87039e-06 1.56709e-22)
(-0.00188368 -8.53785e-06 0)
(-0.0018046 -8.07172e-06 -1.5003e-22)
(-0.00172959 -7.50792e-06 1.47085e-22)
(-0.00165941 -6.87914e-06 0)
(-0.0015946 -6.214e-06 0)
(-0.00153548 -5.53671e-06 0)
(-0.00148219 -4.86695e-06 -1.3742e-22)
(-0.00143469 -4.22012e-06 -1.35406e-22)
(-0.00139284 -3.60762e-06 0)
(-0.00135639 -3.03739e-06 -1.31686e-22)
(-0.00132502 -2.51438e-06 -1.29935e-22)
(-0.00129839 -2.04108e-06 1.28232e-22)
(-0.00127609 -1.61806e-06 0)
(-0.00125772 -1.24438e-06 0)
(-0.00124287 -9.18015e-07 1.23252e-22)
(-0.00123116 -6.36167e-07 0)
(-0.0012222 -3.95547e-07 0)
(-0.00121562 -1.92557e-07 0)
(-0.0012111 -2.34266e-08 0)
(-0.00120833 1.15653e-07 -1.14757e-22)
(-0.00120701 2.2753e-07 -1.12974e-22)
(-0.0012069 3.11366e-07 0)
(-0.00120776 3.63425e-07 -1.09303e-22)
(-0.00120941 3.81568e-07 0)
(-0.00121167 4.11357e-07 0)
(-0.00121437 4.41589e-07 -1.03536e-22)
(-0.00121738 4.5884e-07 0)
(-0.00122061 4.65483e-07 -9.95301e-23)
(-0.00122398 4.65829e-07 0)
(-0.00122745 4.63224e-07 0)
(-0.00123097 4.60449e-07 -9.3313e-23)
(-0.00123455 4.59955e-07 0)
(-0.0012382 4.63705e-07 -8.90474e-23)
(-0.00124194 4.72874e-07 0)
(-0.00124581 4.87435e-07 0)
(-0.00124983 5.05751e-07 0)
(-0.00125397 5.24126e-07 8.02249e-23)
(-0.00125816 5.36289e-07 0)
(-0.00126224 5.32169e-07 -7.56238e-23)
(-0.00126591 4.96957e-07 0)
(-0.00126871 4.28143e-07 0)
(-0.00126996 3.45411e-07 0)
(-0.00126873 1.50737e-07 0)
(-0.00126381 -1.57854e-07 0)
(-0.00125356 -6.07836e-07 0)
(-0.00123546 -1.31597e-06 0)
(-0.00120528 -3.03058e-06 1.1032e-22)
(-0.00116552 -3.07012e-06 0)
(-0.00103185 -2.08453e-05 0)
(2.29207e-05 -0.00019687 -2.5326e-23)
(0.000171563 -0.000457801 3.39904e-23)
(0.00038424 -0.000599262 0)
(0.000619731 -0.000638935 -2.26139e-23)
(0.000831186 -0.000597394 0)
(0.000983145 -0.000494289 -8.91782e-24)
(0.00104884 -0.000346634 1.73305e-23)
(0.0010077 -0.000168387 1.45789e-23)
(0.000844074 2.95177e-05 0)
(0.000546388 0.000238953 7.76497e-24)
(0.000106195 0.000454166 5.68559e-26)
(-0.00048263 0.000671409 0)
(-0.0012246 0.000888554 0)
(-0.00212323 0.00110471 0)
(-0.00318145 0.00131986 0)
(-0.00440195 0.00153455 -1.39854e-23)
(-0.00578729 0.00174958 0)
(-0.00733995 0.00196576 3.35052e-23)
(-0.00906219 0.00218364 0)
(-0.0109558 0.00240336 0)
(-0.0130219 0.00262451 -5.3478e-23)
(-0.01526 0.00284601 0)
(-0.0176685 0.00306605 6.75991e-23)
(-0.020243 0.00328214 -4.25491e-23)
(-0.0229768 0.00349108 4.61884e-23)
(-0.0258601 0.00368904 -4.97091e-23)
(-0.0288792 0.00387168 -5.30532e-23)
(-0.0320171 0.00403422 0)
(-0.0352526 0.00417161 0)
(-0.0385603 0.00427866 6.13591e-23)
(-0.0419111 0.00435021 -5.40449e-23)
(-0.045272 0.00438132 0)
(-0.0486066 0.00436743 0)
(-0.0518755 0.00430457 6.55653e-23)
(-0.0550372 0.00418952 0)
(-0.0580485 0.00402002 0)
(-0.0608656 0.00379485 -6.08184e-23)
(-0.0634448 0.003514 0)
(-0.0657436 0.00317873 5.15317e-23)
(-0.0677215 0.00279162 -9.46872e-23)
(-0.0693412 0.00235654 0)
(-0.0705691 0.00187857 0)
(-0.0713762 0.0013639 -1.04469e-22)
(-0.0717389 0.000819612 -6.77781e-23)
(-0.0716391 0.000253678 -2.71111e-23)
(-0.0710651 -0.000325287 -1.66136e-24)
(-0.0700121 -0.000908547 4.02018e-23)
(-0.068481 -0.00148705 1.80909e-22)
(-0.0664796 -0.00205205 -1.67008e-22)
(-0.0640213 -0.00259533 -1.20754e-22)
(-0.0611251 -0.00310946 0)
(-0.057815 -0.00358791 1.76752e-22)
(-0.0541191 -0.00402526 -1.80012e-22)
(-0.0500691 -0.00441727 0)
(-0.0456994 -0.00476097 0)
(-0.041046 -0.00505459 0)
(-0.0361463 -0.00529755 3.03939e-22)
(-0.0310379 -0.00549031 0)
(-0.025758 -0.00563418 -6.55453e-22)
(-0.0203432 -0.00573112 0)
(-0.0148289 -0.00578345 -7.08647e-22)
(-0.00924921 -0.00579358 0)
(-0.00363715 -0.00576359 7.35756e-22)
(0.0019745 -0.00569503 0)
(0.00755531 -0.00558921 -7.15121e-22)
(0.0130733 -0.0054473 3.30936e-22)
(0.018496 -0.00526989 0)
(0.0237904 -0.00505671 6.21214e-22)
(0.0289215 -0.00480685 3.02002e-22)
(0.0338521 -0.00451899 2.77662e-22)
(0.0385421 -0.00419172 0)
(0.0429486 -0.00382388 2.006e-22)
(0.0470257 -0.00341494 1.93062e-22)
(0.0507254 -0.00296539 0)
(0.0539983 -0.0024771 -1.30765e-22)
(0.0567945 -0.00195366 1.81961e-22)
(0.059066 -0.00140063 0)
(0.0607681 -0.000825747 3.70398e-23)
(0.061862 -0.000238929 0)
(0.0623175 0.000348076 6.88296e-23)
(0.062115 0.000922085 0)
(0.06125 0.00146843 -2.10793e-22)
(0.0597327 0.00197247 -8.98468e-23)
(0.057591 0.00242004 1.04876e-22)
(0.054871 0.00279831 2.33434e-22)
(0.0516368 0.00309681 -2.5113e-22)
(0.0479689 0.00330827 0)
(0.043962 0.00342932 0)
(0.0397203 0.00346078 0)
(0.0353534 0.00340774 8.69694e-22)
(0.0309701 0.00327913 2.96252e-22)
(0.0266735 0.00308691 -2.89307e-22)
(0.0225556 0.00284512 0)
(0.0186935 0.00256866 -2.37861e-22)
(0.0151465 0.00227221 2.55523e-22)
(0.011955 0.00196931 2.42203e-22)
(0.00914095 0.00167181 0)
(0.0067086 0.00138964 0)
(0.00464676 0.00113083 0)
(0.0029309 0.000901612 1.92032e-22)
(0.00152578 0.000706416 0)
(0.000388278 0.000547763 -3.3496e-22)
(-0.000529406 0.000426022 -4.86267e-22)
(-0.00127621 0.000339254 3.09478e-22)
(-0.0018986 0.000283372 0)
(-0.00243741 0.00025262 1.43652e-22)
(-0.00292555 0.000240287 0)
(-0.00338683 0.000239539 2.82952e-22)
(-0.00383588 0.000244183 -1.37858e-22)
(-0.00427912 0.000249193 -1.36699e-22)
(-0.00471643 0.000250963 0)
(-0.00514301 0.000247295 -4.10288e-22)
(-0.00555124 0.000237212 2.70148e-22)
(-0.00593232 0.000220695 1.34973e-22)
(-0.00627753 0.000198394 0)
(-0.00657912 0.000171377 1.31383e-22)
(-0.00683091 0.000140938 3.86364e-22)
(-0.00702863 0.000108439 0)
(-0.00716998 7.52087e-05 2.47986e-22)
(-0.00725466 4.24648e-05 2.42861e-22)
(-0.00728418 1.12748e-05 2.37458e-22)
(-0.00726165 -1.73744e-05 0)
(-0.00719151 -4.29296e-05 0)
(-0.00707921 -6.48964e-05 0)
(-0.00693089 -8.29948e-05 -1.07787e-22)
(-0.00675309 -9.71411e-05 -1.04028e-22)
(-0.00655246 -0.000107417 0)
(-0.00633547 -0.000114038 -1.98584e-22)
(-0.00610826 -0.000117327 -1.93718e-22)
(-0.00587645 -0.000117676 0)
(-0.00564499 -0.000115522 -1.83708e-22)
(-0.00541816 -0.000111317 -3.61854e-22)
(-0.00519947 -0.000105506 1.76195e-22)
(-0.00499171 -9.85082e-05 1.74896e-22)
(-0.00479697 -9.07073e-05 0)
(-0.00461672 -8.24399e-05 0)
(-0.00445183 -7.39926e-05 0)
(-0.00430268 -6.56012e-05 1.6208e-22)
(-0.00416926 -5.74524e-05 -1.61034e-22)
(-0.00405121 -4.9688e-05 -3.16472e-22)
(-0.00394791 -4.2409e-05 1.55687e-22)
(-0.00385855 -3.56819e-05 -1.54506e-22)
(-0.00378219 -2.95441e-05 -1.51835e-22)
(-0.00371779 -2.40097e-05 0)
(-0.00366428 -1.9074e-05 0)
(-0.00362059 -1.47187e-05 1.46606e-22)
(-0.00358564 -1.09155e-05 0)
(-0.00355843 -7.62926e-06 0)
(-0.00353796 -4.82052e-06 -2.81323e-22)
(-0.00352333 -2.44775e-06 0)
(-0.00351369 -4.68821e-07 -1.36701e-22)
(-0.00350826 1.15684e-06 1.34615e-22)
(-0.00350634 2.46463e-06 0)
(-0.0035073 3.48605e-06 -1.30381e-22)
(-0.00351055 4.25188e-06 0)
(-0.00351562 4.8369e-06 0)
(-0.00352207 5.2795e-06 1.2378e-22)
(-0.00352956 5.57909e-06 -2.42879e-22)
(-0.00353777 5.76786e-06 1.19147e-22)
(-0.00354649 5.87785e-06 0)
(-0.00355555 5.93869e-06 0)
(-0.00356485 5.97749e-06 -1.11823e-22)
(-0.00357435 6.01767e-06 0)
(-0.00358406 6.07655e-06 -1.06845e-22)
(-0.003594 6.16187e-06 0)
(-0.00360422 6.26742e-06 0)
(-0.00361469 6.36807e-06 0)
(-0.00362531 6.41476e-06 -9.66043e-23)
(-0.0036358 6.3299e-06 0)
(-0.0036456 6.00342e-06 9.11834e-23)
(-0.00365381 5.2907e-06 0)
(-0.00365908 4.03846e-06 0)
(-0.0036595 2.07323e-06 -1.65196e-22)
(-0.0036525 -9.40287e-07 1.59228e-22)
(-0.00363469 -5.2912e-06 0)
(-0.00360166 -1.14425e-05 0)
(-0.00354713 -2.0329e-05 0)
(-0.0034618 -3.40798e-05 -4.02425e-22)
(-0.00334712 -5.60465e-05 0)
(-0.00307702 -0.000109756 2.41803e-22)
(1.97954e-05 -0.000381376 -3.89137e-24)
(0.000133103 -0.000835829 -5.1273e-23)
(0.000264981 -0.00103255 0)
(0.000369206 -0.00101979 4.92621e-23)
(0.000397097 -0.00084099 0)
(0.00031121 -0.000534234 0)
(8.22634e-05 -0.000131902 3.82649e-24)
(-0.00031325 0.000339325 -1.45892e-23)
(-0.00089424 0.000858179 -1.55339e-23)
(-0.00167584 0.00140827 -7.74088e-24)
(-0.00267009 0.00197753 0)
(-0.00388667 0.00255756 0)
(-0.00533338 0.00314293 2.66321e-25)
(-0.00701666 0.00373052 -8.59049e-24)
(-0.00894181 0.00431878 1.82857e-23)
(-0.0111132 0.00490717 0)
(-0.0135341 0.00549547 3.93756e-23)
(-0.0162068 0.00608329 -3.28787e-23)
(-0.019132 0.00666956 0)
(-0.0223087 0.00725212 7.51172e-23)
(-0.0257333 0.00782746 5.20961e-23)
(-0.0293995 0.00839053 -1.01344e-22)
(-0.0332972 0.00893468 -6.55061e-23)
(-0.0374122 0.00945169 0)
(-0.0417258 0.00993194 1.4282e-22)
(-0.0462141 0.0103646 1.56706e-22)
(-0.0508479 0.0107382 0)
(-0.0555927 0.0110404 1.83469e-22)
(-0.0604086 0.0112592 0)
(-0.0652509 0.0113827 2.07277e-22)
(-0.0700702 0.0114 1.11506e-22)
(-0.0748138 0.0113013 0)
(-0.0794257 0.0110788 0)
(-0.0838484 0.0107265 0)
(-0.0880233 0.0102411 0)
(-0.0918928 0.00962163 0)
(-0.0954004 0.0088703 0)
(-0.0984929 0.00799205 2.23592e-22)
(-0.101121 0.00699474 -3.10028e-22)
(-0.10324 0.00588896 0)
(-0.104811 0.00468781 0)
(-0.105802 0.00340655 0)
(-0.106188 0.00206216 -2.19958e-23)
(-0.105951 0.00067301 6.43641e-23)
(-0.105081 -0.000741439 7.60918e-23)
(-0.103578 -0.00216121 7.07834e-24)
(-0.101445 -0.00356648 3.51226e-23)
(-0.098696 -0.0049384 -1.0921e-22)
(-0.0953496 -0.00625932 2.73861e-23)
(-0.0914312 -0.00751318 -1.82921e-22)
(-0.0869714 -0.00868589 0)
(-0.0820056 -0.0097656 -2.87866e-22)
(-0.0765727 -0.0107429 2.83378e-23)
(-0.0707147 -0.011611 0)
(-0.0644758 -0.0123657 0)
(-0.057901 -0.0130051 4.88454e-22)
(-0.0510357 -0.0135297 0)
(-0.0439251 -0.013942 0)
(-0.0366131 -0.014246 -5.78936e-22)
(-0.0291422 -0.0144467 -1.27753e-21)
(-0.0215532 -0.0145499 6.93371e-22)
(-0.0138849 -0.0145612 0)
(-0.00617487 -0.0144859 -7.24565e-22)
(0.00154015 -0.014328 0)
(0.00922627 -0.0140903 -6.463e-22)
(0.0168478 -0.0137743 -6.78517e-22)
(0.0243678 -0.0133799 1.2349e-21)
(0.0317482 -0.0129058 5.52238e-22)
(0.0389483 -0.012349 0)
(0.045924 -0.0117054 -9.80068e-22)
(0.052627 -0.0109704 0)
(0.0590042 -0.01014 -1.1803e-21)
(0.064998 -0.00921058 -6.57631e-22)
(0.0705461 -0.00818085 -5.41651e-22)
(0.0755823 -0.00705197 4.24077e-22)
(0.0800379 -0.00582865 -4.81585e-22)
(0.0838426 -0.0045198 0)
(0.0869277 -0.00313915 0)
(0.0892278 -0.00170551 -2.74946e-23)
(0.0906849 -0.000243082 -1.73564e-22)
(0.0912507 0.00121906 0)
(0.0908912 0.00264767 1.35339e-22)
(0.0895921 0.00400707 0)
(0.0873609 0.00526047 -6.25021e-22)
(0.0842294 0.00637191 1.18358e-23)
(0.0802568 0.00730859 -6.27682e-24)
(0.0755297 0.00804346 5.22158e-22)
(0.0701608 0.00855747 0)