/*--------------------------------*- C++ -*----------------------------------*\
  =========                 |
  \\      /  F ield         | OpenFOAM: The Open Source CFD Toolbox
   \\    /   O peration     | Website:  https://openfoam.org
    \\  /    A nd           | Version:  8
     \\/     M anipulation  |
\*---------------------------------------------------------------------------*/
FoamFile
{
    version     2.0;
    format      ascii;
    class       volScalarField;
    location    "1";
    object      p;
}
// * * * * * * * * * * * * * * * * * * * * * * * * * * * * * * * * * * * * * //

dimensions      [0 2 -2 0 0 0 0];

internalField   nonuniform List<scalar> 
12225
(
-0.00123622
-0.00121496
-0.00119435
-0.00117883
-0.00117222
-0.00117613
-0.001192
-0.0012212
-0.0012654
-0.0013268
-0.0014086
-0.00151576
-0.00165643
-0.0018449
-0.00210722
-0.00249127
-0.00313436
-0.00457221
-0.00123605
-0.00121706
-0.00119858
-0.00118494
-0.00118
-0.00118543
-0.00120271
-0.00123325
-0.0012787
-0.00134123
-0.00142397
-0.00153167
-0.00167191
-0.00185737
-0.00210938
-0.00246365
-0.00299
-0.00395195
-0.00123672
-0.00121979
-0.00120365
-0.00119217
-0.00118916
-0.00119633
-0.00121521
-0.00124718
-0.00129389
-0.00135742
-0.0014407
-0.00154808
-0.00168613
-0.00186504
-0.00209991
-0.0024106
-0.002805
-0.00340434
-0.00123841
-0.00122283
-0.00120867
-0.00119914
-0.0011979
-0.00120665
-0.00122691
-0.00126004
-0.00130759
-0.00137151
-0.00145439
-0.00155991
-0.00169327
-0.00186168
-0.00207377
-0.00233623
-0.00262859
-0.0030042
-0.00124102
-0.00122619
-0.00121361
-0.00120582
-0.00120616
-0.00121631
-0.00123771
-0.00127167
-0.00131962
-0.00138324
-0.00146469
-0.00156682
-0.00169321
-0.00184798
-0.00203414
-0.00224936
-0.00246513
-0.00269794
-0.00124439
-0.00122986
-0.0012185
-0.00121225
-0.00121401
-0.00122536
-0.00124767
-0.00128214
-0.00133001
-0.00139265
-0.0014717
-0.00156903
-0.00168657
-0.00182565
-0.00198497
-0.00215681
-0.00231328
-0.00245311
-0.00124833
-0.00123374
-0.0012233
-0.00121837
-0.00122136
-0.0012337
-0.00125666
-0.00129127
-0.00133857
-0.00139956
-0.00147526
-0.00156658
-0.0016739
-0.00179625
-0.00192945
-0.00206328
-0.00217406
-0.00225455
-0.00125263
-0.0012377
-0.00122787
-0.00122405
-0.00122804
-0.00124115
-0.00126445
-0.00129883
-0.00134504
-0.0014037
-0.00147522
-0.00155957
-0.0016558
-0.0017613
-0.00187028
-0.00197213
-0.00204853
-0.00209239
-0.00125697
-0.00124155
-0.00123207
-0.00122912
-0.0012339
-0.00124751
-0.00127084
-0.00130458
-0.00134921
-0.00140493
-0.00147157
-0.00154828
-0.00163311
-0.00172239
-0.00180978
-0.00188561
-0.00193676
-0.0019585
-0.00126099
-0.00124503
-0.00123571
-0.00123343
-0.00123876
-0.0012526
-0.00127564
-0.00130835
-0.00135092
-0.00140319
-0.00146443
-0.00153316
-0.00160675
-0.00168101
-0.0017498
-0.00180505
-0.001838
-0.00184655
-0.00126429
-0.00124784
-0.00123857
-0.00123676
-0.00124242
-0.00125622
-0.00127865
-0.00130996
-0.00135008
-0.00139848
-0.00145402
-0.00151475
-0.00157764
-0.00163843
-0.00169162
-0.0017309
-0.00175083
-0.00175152
-0.00126626
-0.00124948
-0.00124023
-0.00123872
-0.00124448
-0.001258
-0.00127959
-0.00130931
-0.00134688
-0.00139149
-0.00144173
-0.00149536
-0.00154922
-0.00159924
-0.00164061
-0.0016685
-0.00167967
-0.00167575
-0.00126679
-0.00125024
-0.00124101
-0.00123972
-0.00124547
-0.00125854
-0.00127908
-0.00130698
-0.00134176
-0.00138243
-0.00142735
-0.00147418
-0.00151979
-0.00156047
-0.00159221
-0.00161146
-0.00161652
-0.0016092
-0.00126519
-0.00124949
-0.00124045
-0.00123934
-0.00124495
-0.00125728
-0.00127636
-0.00130191
-0.0013333
-0.00136936
-0.00140835
-0.00144792
-0.00148516
-0.00151683
-0.00153978
-0.00155159
-0.00155158
-0.00154141
-0.00125998
-0.00124592
-0.00123753
-0.00123664
-0.00124193
-0.0012532
-0.00127033
-0.00129294
-0.00132027
-0.00135111
-0.0013837
-0.00141581
-0.00144486
-0.00146817
-0.00148333
-0.0014888
-0.00148443
-0.00147156
-0.00124908
-0.00123776
-0.00123086
-0.00123037
-0.00123519
-0.00124499
-0.00125961
-0.00127862
-0.00130124
-0.00132627
-0.00135208
-0.00137668
-0.00139787
-0.00141348
-0.00142174
-0.0014216
-0.00141305
-0.00139701
-0.00123007
-0.00122293
-0.0012187
-0.001219
-0.00122323
-0.00123116
-0.00124264
-0.00125729
-0.00127442
-0.00129298
-0.00131154
-0.00132842
-0.0013418
-0.00134996
-0.00135154
-0.00134575
-0.00133243
-0.00131211
-0.00120103
-0.00119966
-0.00119946
-0.00120104
-0.00120454
-0.00121007
-0.00121764
-0.00122701
-0.00123764
-0.00124869
-0.00125904
-0.00126732
-0.00127207
-0.00127191
-0.00126574
-0.00125288
-0.00123296
-0.00120611
-0.0011631
-0.00116857
-0.00117311
-0.001176
-0.00117826
-0.00118051
-0.00118298
-0.00118564
-0.00118821
-0.00119013
-0.00119058
-0.00118857
-0.00118298
-0.00117272
-0.00115687
-0.00113472
-0.00110571
-0.00106984
-0.00113483
-0.00114574
-0.00115386
-0.00115746
-0.00115817
-0.00115688
-0.00115392
-0.00114935
-0.00114305
-0.00113469
-0.00112376
-0.00110959
-0.00109144
-0.00106861
-0.00104052
-0.00100671
-0.000966735
-0.000920308
-0.00112093
-0.00113458
-0.00114434
-0.00114808
-0.00114767
-0.00114396
-0.00113722
-0.00112753
-0.00111482
-0.0010989
-0.00107942
-0.00105595
-0.00102803
-0.000995214
-0.000957172
-0.000913696
-0.000864521
-0.000809549
-0.00111683
-0.00113145
-0.00114177
-0.00114556
-0.00114454
-0.00113931
-0.00112998
-0.00111657
-0.001099
-0.00107711
-0.00105068
-0.00101945
-0.000983144
-0.000941567
-0.000894614
-0.000842306
-0.000784643
-0.000721703
-0.00111925
-0.0011337
-0.00114401
-0.00114804
-0.00114703
-0.00114118
-0.00113043
-0.00111466
-0.00109375
-0.00106754
-0.00103586
-0.00099855
-0.000955513
-0.000906717
-0.000852257
-0.000792358
-0.000727286
-0.000657347
-0.00112515
-0.00113885
-0.00114906
-0.00115372
-0.00115334
-0.00114769
-0.0011365
-0.00111955
-0.00109663
-0.00106755
-0.00103216
-0.000990352
-0.000942131
-0.000887597
-0.000826989
-0.000760696
-0.000689212
-0.00061309
-0.00113219
-0.00114505
-0.00115546
-0.0011612
-0.00116197
-0.00115715
-0.0011463
-0.00112909
-0.00110522
-0.00107445
-0.00103661
-0.00099163
-0.000939553
-0.000880563
-0.000815004
-0.000743384
-0.000666369
-0.000584757
-0.00113879
-0.00115113
-0.00116222
-0.00116949
-0.00117181
-0.00116827
-0.00115832
-0.00114149
-0.00111745
-0.00108588
-0.00104659
-0.000999479
-0.000944616
-0.000882226
-0.000812716
-0.000736673
-0.000654881
-0.000568354
-0.00114404
-0.00115644
-0.00116883
-0.00117799
-0.00118213
-0.00118018
-0.00117146
-0.00115548
-0.0011318
-0.00110009
-0.00106008
-0.00101164
-0.000954824
-0.000889867
-0.000817209
-0.000737486
-0.000651549
-0.000560576
-0.00114751
-0.00116079
-0.00117511
-0.00118648
-0.00119265
-0.00119246
-0.00118522
-0.00117039
-0.00114749
-0.0011161
-0.00107592
-0.00102675
-0.000968621
-0.000901738
-0.00082655
-0.000743719
-0.000654127
-0.000559044
-0.00114905
-0.00116418
-0.001181
-0.00119478
-0.00120309
-0.00120478
-0.00119916
-0.00118568
-0.00116383
-0.00113312
-0.00109318
-0.00104375
-0.000984792
-0.000916485
-0.000839254
-0.000753767
-0.000660916
-0.000562004
-0.00114914
-0.00116646
-0.00118557
-0.00120141
-0.00121148
-0.00121472
-0.00121047
-0.00119818
-0.00117729
-0.00114728
-0.00110771
-0.00105827
-0.000998871
-0.000929637
-0.000850974
-0.000763543
-0.000668235
-0.00056636
0.000375965
0.000382636
0.000382305
0.000370373
0.000346969
0.000312952
0.000269172
0.000216528
0.000155952
8.83532e-05
1.45458e-05
-6.4755e-05
-0.000148937
-0.00023748
-0.000329938
-0.000425909
-0.000525012
-0.000626853
-0.000730995
-0.00083693
-0.000944051
-0.00105163
-0.00115879
-0.00126449
-0.00136754
-0.00146655
-0.00155996
-0.00164604
-0.00172288
-0.00178846
-0.00184064
-0.00187717
-0.00189581
-0.00189429
-0.00187044
-0.00182222
-0.00174778
-0.00164556
-0.00151431
-0.00135323
-0.00116195
-0.000940667
-0.000690116
-0.000411652
-0.000107223
0.000220676
0.000568811
0.000933511
0.00131059
0.00169543
0.00208309
0.00246839
0.00284606
0.0032108
0.00355741
0.00388092
0.00417663
0.00444025
0.00466794
0.00485635
0.00500269
0.00510475
0.00516089
0.00517007
0.00513186
0.00504637
0.00491428
0.00473686
0.004516
0.0042541
0.00395419
0.00361984
0.00325522
0.00286507
0.00245465
0.00202975
0.00159655
0.00116158
0.000731533
0.000313138
-8.71019e-05
-0.000462965
-0.000808931
-0.00112023
-0.00139306
-0.00162478
-0.00181397
-0.00196051
-0.00206549
-0.00213118
-0.00216083
-0.00215845
-0.00212863
-0.00207622
-0.00200615
-0.00192318
-0.00183178
-0.00173598
-0.00163929
-0.00154473
-0.00145476
-0.00137131
-0.00129577
-0.00122899
-0.0011713
-0.00112254
-0.0010821
-0.00104901
-0.00102207
-0.000999913
-0.000981182
-0.000964591
-0.000949016
-0.000933539
-0.000917471
-0.000900352
-0.000881936
-0.000862167
-0.000841148
-0.000819101
-0.000796333
-0.000773223
-0.000750156
-0.000727523
-0.000705689
-0.000684973
-0.000665639
-0.000647887
-0.000631846
-0.000617579
-0.000605088
-0.000594318
-0.000585169
-0.000577502
-0.000571157
-0.000565952
-0.000561702
-0.000558221
-0.000555327
-0.000552853
-0.000550642
-0.000548556
-0.000546475
-0.000544295
-0.000541929
-0.000539307
-0.000536373
-0.000533084
-0.000529415
-0.000525329
-0.000520829
-0.000515905
-0.00051056
-0.000504799
-0.000498632
-0.000492074
-0.000485139
-0.000477844
-0.000470207
-0.000462243
-0.00045397
-0.000445401
-0.000436546
-0.000427412
-0.000418003
-0.000408315
-0.00039834
-0.000388062
-0.000377462
-0.000366515
-0.000355197
-0.000343467
-0.000331319
-0.000318733
-0.000305713
-0.000292287
-0.000278526
-0.000264635
-0.000251853
-0.00023425
0.000388897
0.000394533
0.000393622
0.000382273
0.000361037
0.000330851
0.000292432
0.000246452
0.000193593
0.000134505
6.97898e-05
-2.71541e-08
-7.44905e-05
-0.000153208
-0.000235835
-0.000322059
-0.000411574
-0.000504059
-0.000599147
-0.000696409
-0.000795324
-0.000895258
-0.000995446
-0.00109498
-0.00119277
-0.00128759
-0.00137801
-0.00146244
-0.00153912
-0.00160614
-0.00166147
-0.00170294
-0.00172836
-0.00173551
-0.00172219
-0.00168631
-0.00162595
-0.00153939
-0.00142527
-0.00128255
-0.00111068
-0.0009096
-0.000679797
-0.00042237
-0.000139015
0.000168055
0.000495901
0.000841023
0.00119942
0.00156665
0.00193793
0.00230819
0.00267225
0.00302487
0.00336089
0.00367534
0.00396352
0.00422112
0.00444425
0.00462951
0.00477408
0.00487567
0.0049326
0.00494373
0.00490853
0.00482711
0.00470017
0.00452902
0.00431551
0.0040621
0.00377179
0.0034482
0.00309552
0.0027185
0.00232243
0.00191307
0.00149657
0.00107937
0.000668041
0.000269122
-0.000111059
-0.000466553
-0.000792282
-0.00108385
-0.00133788
-0.00155216
-0.00172571
-0.0018588
-0.00195286
-0.00201039
-0.00203477
-0.00203003
-0.00200064
-0.00195124
-0.00188641
-0.00181054
-0.00172764
-0.00164126
-0.0015545
-0.00146991
-0.0013896
-0.00131517
-0.00124779
-0.00118816
-0.00113656
-0.00109282
-0.00105642
-0.00102655
-0.00100215
-0.00098206
-0.000965072
-0.000950056
-0.000936001
-0.000922067
-0.000907608
-0.000892175
-0.000875511
-0.000857529
-0.000838289
-0.000817973
-0.000796851
-0.000775245
-0.000753519
-0.000732038
-0.000711151
-0.000691172
-0.000672365
-0.000654939
-0.000639038
-0.000624745
-0.000612083
-0.000601021
-0.000591485
-0.00058336
-0.000576507
-0.000570766
-0.00056597
-0.000561946
-0.000558527
-0.000555553
-0.000552877
-0.000550364
-0.000547896
-0.00054537
-0.000542701
-0.000539816
-0.000536656
-0.000533177
-0.000529342
-0.000525135
-0.000520534
-0.000515532
-0.000510128
-0.000504326
-0.000498133
-0.000491559
-0.000484619
-0.000477327
-0.000469698
-0.000461748
-0.00045349
-0.000444938
-0.000436101
-0.000426987
-0.000417597
-0.000407931
-0.00039798
-0.000387732
-0.000377171
-0.000366275
-0.000355023
-0.000343394
-0.00033137
-0.000318946
-0.000306136
-0.000292985
-0.000279589
-0.000266179
-0.000253973
-0.000237156
0.000451494
0.000451831
0.000445891
0.000431279
0.000408683
0.000378937
0.000342623
0.000300237
0.00025225
0.000199093
0.000141141
7.87107e-05
1.20613e-05
-5.85942e-05
-0.000133077
-0.000211228
-0.000292883
-0.000377859
-0.000465927
-0.000556792
-0.000650067
-0.000745258
-0.000841737
-0.000938727
-0.00103529
-0.00113029
-0.00122244
-0.00131022
-0.00139196
-0.00146579
-0.00152966
-0.00158142
-0.00161879
-0.00163944
-0.00164104
-0.00162133
-0.00157818
-0.00150965
-0.00141411
-0.00129031
-0.00113741
-0.000955116
-0.0007437
-0.000504023
-0.000237529
5.35152e-05
0.000366408
0.000697721
0.00104349
0.0013993
0.00176034
0.00212154
0.00247765
0.00282341
0.00315359
0.00346316
0.00374737
0.00400187
0.00422271
0.00440649
0.00455033
0.00465195
0.00470965
0.00472231
0.00468936
0.00461089
0.00448763
0.00432091
0.0041126
0.00386516
0.00358164
0.00326568
0.00292152
0.00255397
0.00216838
0.00177058
0.00136679
0.000963487
0.000567285
0.000184728
-0.000177891
-0.00051496
-0.000821363
-0.00109306
-0.00132707
-0.00152162
-0.00167623
-0.00179169
-0.00186995
-0.00191399
-0.00192756
-0.00191499
-0.00188085
-0.00182974
-0.00176609
-0.00169395
-0.00161691
-0.00153806
-0.00145993
-0.00138461
-0.0013137
-0.00124843
-0.00118963
-0.00113781
-0.00109309
-0.00105529
-0.00102393
-0.000998263
-0.00097738
-0.000960255
-0.000945839
-0.000933128
-0.000921221
-0.000909356
-0.000896936
-0.000883532
-0.000868887
-0.000852894
-0.000835585
-0.000817107
-0.000797693
-0.00077764
-0.000757283
-0.000736969
-0.000717035
-0.000697793
-0.000679511
-0.000662409
-0.000646645
-0.000632322
-0.000619486
-0.00060813
-0.000598201
-0.00058961
-0.000582239
-0.00057595
-0.000570591
-0.000566006
-0.000562041
-0.000558545
-0.000555378
-0.000552412
-0.000549532
-0.000546637
-0.000543639
-0.000540467
-0.00053706
-0.000533371
-0.000529361
-0.000525007
-0.000520289
-0.000515194
-0.00050972
-0.000503866
-0.000497637
-0.000491042
-0.000484091
-0.000476796
-0.000469172
-0.000461231
-0.000452987
-0.000444451
-0.000435633
-0.000426539
-0.000417171
-0.00040753
-0.000397609
-0.000387398
-0.000376884
-0.000366051
-0.000354879
-0.00034336
-0.000331479
-0.000319238
-0.000306664
-0.000293816
-0.000280805
-0.000267859
-0.00025632
-0.000239929
0.000562018
0.000552635
0.000537135
0.000515622
0.000488466
0.000456062
0.000418776
0.000376925
0.000330768
0.000280509
0.000226292
0.000168204
0.000106281
4.05155e-05
-2.91256e-05
-0.000102688
-0.000180211
-0.000261705
-0.000347129
-0.000436369
-0.000529211
-0.000625321
-0.000724216
-0.000825245
-0.000927565
-0.00103012
-0.00113165
-0.00123063
-0.00132533
-0.00141378
-0.0014938
-0.00156302
-0.00161893
-0.00165893
-0.00168038
-0.0016807
-0.00165742
-0.00160829
-0.00153137
-0.00142512
-0.00128848
-0.00112095
-0.000922669
-0.000694369
-0.000437488
-0.000154237
0.00015249
0.000479173
0.000821713
0.00117551
0.00153559
0.00189667
0.00225332
0.00260008
0.00293159
0.00324267
0.00352849
0.00378459
0.00400701
0.00419233
0.00433768
0.00444082
0.00450008
0.0045144
0.00448331
0.00440691
0.0042859
0.00412164
0.003916
0.00367145
0.00339103
0.00307842
0.00273788
0.00237431
0.00199313
0.00160031
0.00120225
0.000805617
0.000417236
4.38554e-05
-0.000308066
-0.000632621
-0.000924714
-0.00118034
-0.00139668
-0.00157224
-0.00170695
-0.00180214
-0.00186041
-0.00188541
-0.00188159
-0.00185386
-0.00180729
-0.00174681
-0.00167696
-0.00160173
-0.00152446
-0.00144783
-0.0013739
-0.00130423
-0.0012399
-0.00118168
-0.00113001
-0.00108509
-0.00104684
-0.00101496
-0.000988896
-0.000967925
-0.000951169
-0.000937671
-0.000926461
-0.000916617
-0.000907309
-0.000897837
-0.000887647
-0.000876338
-0.000863663
-0.000849517
-0.000833924
-0.00081702
-0.000799025
-0.000780225
-0.000760947
-0.000741532
-0.000722319
-0.000703623
-0.00068572
-0.000668839
-0.000653156
-0.000638787
-0.000625795
-0.000614191
-0.00060394
-0.00059497
-0.000587179
-0.000580444
-0.000574627
-0.000569584
-0.000565169
-0.000561241
-0.000557665
-0.000554318
-0.000551087
-0.000547874
-0.000544592
-0.000541168
-0.000537541
-0.000533662
-0.000529493
-0.000525004
-0.000520174
-0.00051499
-0.000509444
-0.000503536
-0.000497267
-0.000490644
-0.000483676
-0.000476373
-0.000468746
-0.000460809
-0.000452572
-0.000444047
-0.000435243
-0.000426165
-0.000416818
-0.0004072
-0.000397309
-0.000387136
-0.000376671
-0.000365901
-0.000354813
-0.000343398
-0.000331651
-0.000319582
-0.000307221
-0.000294635
-0.00028194
-0.000269341
-0.000258147
-0.0002423
0.000705668
0.000683498
0.000655215
0.000624181
0.000590242
0.000553152
0.000512936
0.000469648
0.000423276
0.000373742
0.000320914
0.000264608
0.000204595
0.000140613
7.23756e-05
-4.05662e-07
-7.80061e-05
-0.000160664
-0.000248556
-0.00034177
-0.000440276
-0.000543897
-0.000652277
-0.000764853
-0.000880824
-0.000999128
-0.00111842
-0.00123707
-0.00135313
-0.0014644
-0.00156837
-0.00166232
-0.00174336
-0.00180846
-0.00185455
-0.00187862
-0.00187781
-0.0018495
-0.00179144
-0.00170182
-0.0015794
-0.00142357
-0.0012344
-0.00101262
-0.000759815
-0.000478378
-0.000171407
0.000157329
0.00050345
0.000862063
0.00122787
0.0015953
0.00195865
0.0023122
0.00265035
0.00296777
0.00325949
0.00352098
0.00374825
0.00393787
0.00408703
0.00419354
0.00425582
0.00427288
0.00424433
0.00417031
0.00405156
0.00388943
0.00368581
0.00344313
0.00316441
0.00285331
0.00251408
0.00215167
0.00177158
0.00137995
0.000983376
0.000588813
0.000203418
-0.000165685
-0.000511654
-0.000828184
-0.00110983
-0.00135235
-0.00155284
-0.00170989
-0.0018237
-0.00189608
-0.00193026
-0.00193074
-0.00190285
-0.00185243
-0.00178539
-0.00170737
-0.00162338
-0.00153764
-0.00145345
-0.00137325
-0.00129867
-0.00123071
-0.00116992
-0.00111647
-0.00107034
-0.00103131
-0.000999006
-0.000972881
-0.000952246
-0.00093629
-0.000924107
-0.000914737
-0.000907231
-0.000900706
-0.000894373
-0.000887574
-0.000879789
-0.000870647
-0.000859921
-0.000847519
-0.000833475
-0.00081793
-0.00080111
-0.000783306
-0.000764851
-0.000746095
-0.000727386
-0.00070905
-0.000691375
-0.000674604
-0.000658924
-0.000644467
-0.000631309
-0.000619473
-0.000608938
-0.000599644
-0.0005915
-0.000584393
-0.000578196
-0.000572772
-0.000567982
-0.000563692
-0.000559772
-0.000556102
-0.000552572
-0.000549084
-0.000545555
-0.000541909
-0.000538087
-0.000534038
-0.000529721
-0.000525106
-0.000520171
-0.0005149
-0.000509284
-0.00050332
-0.000497008
-0.000490352
-0.000483361
-0.000476043
-0.000468409
-0.000460469
-0.000452234
-0.000443716
-0.000434921
-0.000425857
-0.000416528
-0.000406933
-0.000397072
-0.000386937
-0.000376522
-0.000365816
-0.000354811
-0.000343499
-0.000331882
-0.000319973
-0.000307805
-0.000295448
-0.000283012
-0.000270677
-0.000259583
-0.0002445
0.000866916
0.00083046
0.000787702
0.000745749
0.000703808
0.000660816
0.000616356
0.000570141
0.000521816
0.000470962
0.000417118
0.000359785
0.000298435
0.000232517
0.000161469
8.4736e-05
1.78893e-06
-8.78485e-05
-0.000184572
-0.000288662
-0.000400251
-0.000519279
-0.00064546
-0.00077824
-0.000916761
-0.00105983
-0.00120591
-0.00135307
-0.00149904
-0.00164119
-0.00177655
-0.00190192
-0.00201387
-0.00210885
-0.0021833
-0.00223374
-0.0022569
-0.0022498
-0.00220992
-0.00213525
-0.00202446
-0.0018769
-0.00169265
-0.00147265
-0.00121875
-0.000933604
-0.000620603
-0.000283878
7.18068e-05
0.000441162
0.0008185
0.00119787
0.00157323
0.00193853
0.00228794
0.00261592
0.00291734
0.00318761
0.00342272
0.00361925
0.00377449
0.00388632
0.00395329
0.00397453
0.00394971
0.00387907
0.00376338
0.00360398
0.00340274
0.00316204
0.00288483
0.00257468
0.00223584
0.00187321
0.0014924
0.00109964
0.000701774
0.000306076
-7.98934e-05
-0.000448527
-0.000792448
-0.00110481
-0.00137958
-0.001612
-0.00179883
-0.00193849
-0.00203123
-0.00207916
-0.00208611
-0.00205739
-0.00199939
-0.00191911
-0.00182364
-0.00171968
-0.00161313
-0.00150879
-0.00141024
-0.00131989
-0.00123904
-0.00116822
-0.00110733
-0.00105592
-0.00101335
-0.000978875
-0.000951681
-0.00093089
-0.000915561
-0.000904705
-0.000897314
-0.000892365
-0.00088888
-0.00088597
-0.000882863
-0.000878921
-0.00087365
-0.000866705
-0.000857883
-0.000847115
-0.000834457
-0.000820068
-0.000804194
-0.000787145
-0.000769274
-0.000750948
-0.000732534
-0.000714375
-0.000696776
-0.000679994
-0.00066423
-0.000649627
-0.000636271
-0.000624198
-0.000613393
-0.000603805
-0.00059535
-0.000587923
-0.0005814
-0.000575653
-0.000570546
-0.000565949
-0.000561735
-0.000557788
-0.000554
-0.000550275
-0.000546527
-0.000542686
-0.000538688
-0.000534483
-0.00053003
-0.000525298
-0.000520262
-0.000514907
-0.00050922
-0.000503198
-0.00049684
-0.000490149
-0.000483131
-0.000475793
-0.000468145
-0.000460198
-0.000451961
-0.000443445
-0.000434657
-0.000425604
-0.00041629
-0.000406718
-0.000396886
-0.000386791
-0.000376427
-0.000365787
-0.000354865
-0.000343657
-0.000332166
-0.00032041
-0.000308422
-0.000296269
-0.000284054
-0.00027193
-0.000260805
-0.000246642
0.00102903
0.000977944
0.000920447
0.000867296
0.000816992
0.000767573
0.000718092
0.000667844
0.00061606
0.00056192
0.000504584
0.000443203
0.000376918
0.000304868
0.000226201
0.000140089
4.57555e-05
-5.7501e-05
-0.000170268
-0.000292977
-0.000425863
-0.000568907
-0.000721797
-0.000883874
-0.00105409
-0.00123099
-0.00141267
-0.00159677
-0.00178053
-0.00196076
-0.00213391
-0.00229619
-0.00244356
-0.00257193
-0.0026772
-0.00275546
-0.00280302
-0.00281664
-0.00279357
-0.0027317
-0.00262965
-0.00248684
-0.00230352
-0.00208091
-0.00182116
-0.00152723
-0.00120294
-0.000852836
-0.000482145
-9.66203e-05
0.000297593
0.000694111
0.00108647
0.00146829
0.00183342
0.0021761
0.00249104
0.00277357
0.00301963
0.0032259
0.00338971
0.00350909
0.00358274
0.00360992
0.00359043
0.00352461
0.00341325
0.00325769
0.00305975
0.00282174
0.0025465
0.0022375
0.00189889
0.00153553
0.00115303
0.000757771
0.000356775
-4.23496e-05
-0.000431605
-0.000802841
-0.00114805
-0.00145969
-0.00173104
-0.00195664
-0.00213257
-0.00225686
-0.00232955
-0.00235282
-0.00233091
-0.00226986
-0.0021771
-0.00206092
-0.00192984
-0.00179199
-0.00165453
-0.00152326
-0.00140244
-0.00129469
-0.00120126
-0.00112224
-0.00105694
-0.0010042
-0.000962671
-0.000930936
-0.000907618
-0.000891381
-0.00088091
-0.00087495
-0.000872311
-0.000871841
-0.000872484
-0.000873307
-0.00087352
-0.000872488
-0.000869732
-0.000864926
-0.000857895
-0.000848599
-0.000837121
-0.000823653
-0.000808473
-0.000791921
-0.000774379
-0.000756245
-0.000737908
-0.000719735
-0.00070205
-0.000685127
-0.00066918
-0.000654362
-0.000640769
-0.000628441
-0.00061737
-0.000607507
-0.000598774
-0.000591068
-0.000584267
-0.000578246
-0.000572873
-0.000568018
-0.000563559
-0.000559378
-0.00055537
-0.00055144
-0.000547504
-0.00054349
-0.000539336
-0.000534992
-0.000530415
-0.000525573
-0.000520442
-0.000515004
-0.000509248
-0.000503168
-0.000496761
-0.00049003
-0.000482981
-0.000475619
-0.000467953
-0.000459994
-0.00045175
-0.000443232
-0.000434447
-0.000425402
-0.000416103
-0.000406552
-0.00039675
-0.000386695
-0.000376382
-0.000365809
-0.00035497
-0.000343864
-0.000332499
-0.000320888
-0.000309068
-0.000297099
-0.000285074
-0.000273124
-0.000261895
-0.000248737
0.00117498
0.00111005
0.00103857
0.000974783
0.00091641
0.000860538
0.000805624
0.000750476
0.000693852
0.000634483
0.000571116
0.000502519
0.000427487
0.000344839
0.000253434
0.000152186
4.00921e-05
-8.37338e-05
-0.000220017
-0.000369269
-0.000531737
-0.000707339
-0.000895613
-0.00109566
-0.00130611
-0.00152508
-0.00175017
-0.00197846
-0.00220658
-0.00243068
-0.00264658
-0.00284982
-0.00303577
-0.00319977
-0.00333725
-0.00344386
-0.0035156
-0.00354898
-0.00354113
-0.00348987
-0.00339386
-0.00325262
-0.0030667
-0.00283759
-0.00256776
-0.00226057
-0.00192027
-0.0015519
-0.00116121
-0.000754456
-0.000338306
8.03592e-05
0.000494616
0.000897674
0.00128304
0.00164468
0.00197713
0.00227558
0.00253599
0.00275505
0.00293022
0.00305968
0.00314228
0.00317747
0.00316521
0.00310591
0.00300045
0.00285014
0.00265676
0.00242251
0.00215012
0.0018429
0.00150488
0.00114083
0.000756359
0.000357904
-4.73096e-05
-0.000451364
-0.00084582
-0.00122196
-0.0015711
-0.00188494
-0.00215595
-0.00237783
-0.00254588
-0.0026574
-0.00271201
-0.00271171
-0.00266088
-0.0025661
-0.00243574
-0.00227938
-0.00210707
-0.0019286
-0.00175276
-0.00158676
-0.00143589
-0.00130342
-0.00119077
-0.0010978
-0.00102329
-0.000965377
-0.000921898
-0.000890667
-0.000869602
-0.000856779
-0.0008504
-0.000848844
-0.00085065
-0.000854478
-0.00085914
-0.00086362
-0.000867083
-0.000868873
-0.000868513
-0.000865693
-0.00086026
-0.000852209
-0.000841659
-0.000828841
-0.000814076
-0.000797744
-0.000780266
-0.000762074
-0.00074359
-0.000725208
-0.000707274
-0.000690077
-0.000673845
-0.000658741
-0.000644864
-0.000632259
-0.000620919
-0.000610797
-0.000601812
-0.000593861
-0.000586825
-0.000580576
-0.000574982
-0.000569915
-0.000565252
-0.000560877
-0.000556686
-0.000552583
-0.000548487
-0.000544323
-0.000540032
-0.000535562
-0.000530872
-0.000525929
-0.000520708
-0.000515191
-0.000509366
-0.000503226
-0.000496768
-0.000489995
-0.00048291
-0.000475519
-0.000467831
-0.000459855
-0.0004516
-0.000443076
-0.00043429
-0.000425251
-0.000415964
-0.000406433
-0.00039666
-0.000386644
-0.000376384
-0.000365877
-0.000355121
-0.000344117
-0.000332871
-0.000321401
-0.000309736
-0.000297934
-0.000286073
-0.000274268
-0.000262893
-0.000250768
0.00128812
0.00121102
0.00112724
0.00105404
0.000988366
0.000926353
0.000865819
0.00080504
0.000742266
0.000675752
0.000603807
0.000524811
0.000437204
0.000339495
0.000230269
0.000108212
-2.78607e-05
-0.000178962
-0.000345878
-0.000529112
-0.000728813
-0.000944719
-0.00117609
-0.00142165
-0.00167957
-0.00194743
-0.00222222
-0.00250038
-0.00277782
-0.00305004
-0.00331216
-0.00355909
-0.00378562
-0.00398657
-0.00415691
-0.00429193
-0.00438737
-0.00443954
-0.00444546
-0.00440295
-0.0043107
-0.00416845
-0.00397698
-0.00373806
-0.0034545
-0.00313008
-0.00276954
-0.00237844
-0.00196307
-0.00153026
-0.00108727
-0.000641515
-0.000200454
0.000228654
0.000638915
0.00102397
0.00137812
0.00169643
0.00197481
0.00220999
0.00239956
0.00254185
0.0026359
0.00268137
0.00267839
0.00262751
0.00252967
0.00238621
0.0021988
0.00196959
0.00170113
0.00139657
0.0010598
0.000695467
0.000309143
-9.26877e-05
-0.000502632
-0.000912477
-0.00131335
-0.00169598
-0.00205097
-0.00236925
-0.00264243
-0.00286327
-0.00302627
-0.0031278
-0.00316682
-0.00314493
-0.0030664
-0.00293813
-0.00276919
-0.00257033
-0.00235311
-0.00212911
-0.00190896
-0.0017016
-0.00151378
-0.00134976
-0.00121147
-0.00109879
-0.00101012
-0.000942923
-0.000894207
-0.000860922
-0.000840171
-0.000829316
-0.000825975
-0.000828058
-0.000833751
-0.000841464
-0.000849826
-0.000857701
-0.000864178
-0.000868561
-0.000870361
-0.000869274
-0.000865171
-0.000858078
-0.00084816
-0.000835693
-0.000821045
-0.000804647
-0.000786963
-0.000768468
-0.000749619
-0.00073084
-0.000712498
-0.000694902
-0.00067829
-0.00066283
-0.000648627
-0.000635723
-0.00062411
-0.000613738
-0.000604524
-0.00059636
-0.000589124
-0.000582685
-0.000576911
-0.000571672
-0.000566844
-0.000562311
-0.000557968
-0.000553721
-0.000549487
-0.000545194
-0.000540782
-0.0005362
-0.000531406
-0.000526368
-0.000521061
-0.000515467
-0.000509573
-0.000503372
-0.000496861
-0.000490041
-0.000482916
-0.000475493
-0.000467778
-0.000459781
-0.00045151
-0.000442975
-0.000434186
-0.000425149
-0.000415871
-0.000406358
-0.000396612
-0.000386635
-0.000376426
-0.000365984
-0.00035531
-0.000344405
-0.000333276
-0.000321937
-0.000310417
-0.000298764
-0.000287046
-0.000275362
-0.000263822
-0.000252705
0.00135327
0.00126642
0.00117275
0.00109188
0.00102002
0.000952394
0.000886194
0.000819152
0.000749002
0.000673517
0.000590573
0.000498162
0.000394389
0.00027747
0.000145751
-2.26842e-06
-0.000167897
-0.000352201
-0.000555946
-0.000779523
-0.00102288
-0.00128546
-0.00156613
-0.00186313
-0.00217407
-0.00249591
-0.00282495
-0.00315695
-0.00348712
-0.00381025
-0.00412083
-0.00441315
-0.00468145
-0.00492008
-0.00512361
-0.00528701
-0.00540576
-0.00547601
-0.00549468
-0.00545955
-0.00536938
-0.00522414
-0.00502475
-0.00477328
-0.00447287
-0.00412776
-0.00374316
-0.0033252
-0.00288075
-0.00241728
-0.00194264
-0.00146491
-0.000992116
-0.000532068
-9.2131e-05
0.00032095
0.000701194
0.0010435
0.00134368
0.00159852
0.0018057
0.00196374
0.00207189
0.00213002
0.00213848
0.00209798
0.00200955
0.00187455
0.0016946
0.00147173
0.00120835
0.000907458
0.000572735
0.000208727
-0.000179067
-0.000584125
-0.000998906
-0.00141491
-0.00182286
-0.00221292
-0.00257503
-0.00289931
-0.00317651
-0.00339849
-0.00355879
-0.00365288
-0.00367889
-0.00363785
-0.00353372
-0.00337343
-0.00316654
-0.00292474
-0.00266099
-0.00238859
-0.00212014
-0.00186652
-0.00163623
-0.00143489
-0.00126526
-0.00112755
-0.00101996
-0.000939398
-0.000882064
-0.000844
-0.000821413
-0.000810856
-0.000809264
-0.000813991
-0.000822791
-0.000833768
-0.000845321
-0.000856156
-0.000865259
-0.000871876
-0.000875488
-0.000875794
-0.000872683
-0.000866215
-0.000856599
-0.000844163
-0.000829328
-0.000812579
-0.00079443
-0.000775399
-0.000755984
-0.000736636
-0.000717747
-0.000699642
-0.000682566
-0.000666694
-0.000652128
-0.000638909
-0.000627023
-0.000616413
-0.000606989
-0.000598639
-0.000591235
-0.00058464
-0.000578721
-0.000573343
-0.00056838
-0.000563718
-0.000559249
-0.000554881
-0.000550529
-0.000546123
-0.000541602
-0.000536917
-0.000532027
-0.000526898
-0.000521507
-0.000515835
-0.000509871
-0.000503606
-0.000497038
-0.000490168
-0.000482999
-0.000475538
-0.000467791
-0.000459767
-0.000451476
-0.000442927
-0.000434129
-0.000425091
-0.000415821
-0.000406323
-0.000396602
-0.000386661
-0.000376502
-0.000366125
-0.00035553
-0.000344719
-0.0003337
-0.000322485
-0.000311099
-0.000299579
-0.000287984
-0.000276403
-0.000264694
-0.000254519
0.00135792
0.00126436
0.00116378
0.00107735
0.00100062
0.000928061
0.000856269
0.000782454
0.000703852
0.000617779
0.000521699
0.000413245
0.00029021
0.000150555
-7.57082e-06
-0.000185801
-0.000385505
-0.000607732
-0.000853139
-0.00112192
-0.00141373
-0.00172762
-0.00206198
-0.0024145
-0.00278216
-0.00316125
-0.00354741
-0.00393566
-0.00432055
-0.00469622
-0.00505651
-0.00539518
-0.00570596
-0.00598274
-0.00621973
-0.00641157
-0.0065535
-0.00664148
-0.00667231
-0.00664372
-0.00655454
-0.00640485
-0.00619573
-0.00592948
-0.00560964
-0.00524083
-0.0048288
-0.00438024
-0.00390263
-0.00340412
-0.00289326
-0.0023788
-0.00186944
-0.0013736
-0.000899203
-0.00045344
-4.26425e-05
0.000327855
0.00065377
0.000931879
0.00115997
0.00133674
0.00146166
0.00153486
0.00155691
0.00152872