/*--------------------------------*- C++ -*----------------------------------*\
  =========                 |
  \\      /  F ield         | OpenFOAM: The Open Source CFD Toolbox
   \\    /   O peration     | Website:  https://openfoam.org
    \\  /    A nd           | Version:  8
     \\/     M anipulation  |
\*---------------------------------------------------------------------------*/
FoamFile
{
    version     2.0;
    format      ascii;
    class       surfaceScalarField;
    location    "1";
    object      phi;
}
// * * * * * * * * * * * * * * * * * * * * * * * * * * * * * * * * * * * * * //

dimensions      [0 3 -1 0 0 0 0];

internalField   nonuniform List<scalar> 
24170
(
-1.72233e-12
1.72233e-12
3.39219e-12
-5.11452e-12
1.44829e-11
-1.10907e-11
3.02082e-11
-1.57253e-11
4.95594e-11
-1.93512e-11
7.18928e-11
-2.23334e-11
9.67771e-11
-2.48843e-11
1.23916e-10
-2.7139e-11
1.5311e-10
-2.91941e-11
1.8425e-10
-3.114e-11
2.17319e-10
-3.30691e-11
2.52373e-10
-3.50533e-11
2.89412e-10
-3.70396e-11
3.27816e-10
-3.8404e-11
3.63469e-10
-3.56531e-11
3.74033e-10
-1.0564e-11
2.83971e-10
9.00626e-11
1.08678e-09
-8.02814e-10
-1.71888e-12
3.44121e-12
1.55946e-11
-2.2428e-11
5.10561e-11
-4.65522e-11
1.00702e-10
-6.53712e-11
1.6157e-10
-8.0219e-11
2.31586e-10
-9.23497e-11
3.09277e-10
-1.02575e-10
3.93513e-10
-1.11374e-10
4.83362e-10
-1.19043e-10
5.77995e-10
-1.25773e-10
6.76532e-10
-1.31606e-10
7.77661e-10
-1.36182e-10
8.78577e-10
-1.37956e-10
9.71867e-10
-1.31694e-10
1.03571e-09
-9.94934e-11
1.00268e-09
2.24598e-11
6.36093e-10
4.56653e-10
2.39738e-09
-6.74499e-10
1.48453e-12
1.95668e-12
3.44595e-11
-5.5403e-11
9.82919e-11
-1.10385e-10
1.86605e-10
-1.53684e-10
2.94404e-10
-1.88018e-10
4.17979e-10
-2.15925e-10
5.54533e-10
-2.3913e-10
7.01746e-10
-2.58587e-10
8.57476e-10
-2.74774e-10
1.01947e-09
-2.8777e-10
1.18489e-09
-2.97025e-10
1.34923e-09
-3.00516e-10
1.50373e-09
-2.92458e-10
1.62904e-09
-2.57002e-10
1.67908e-09
-1.49534e-10
1.54131e-09
1.60228e-10
9.37548e-10
1.06042e-09
3.75629e-09
-4.2137e-10
7.79296e-12
-5.83629e-12
6.05318e-11
-1.08142e-10
1.57082e-10
-2.06935e-10
2.88943e-10
-2.85545e-10
4.49019e-10
-3.48094e-10
6.31762e-10
-3.98668e-10
8.32733e-10
-4.40101e-10
1.04799e-09
-4.73843e-10
1.27358e-09
-5.00367e-10
1.50498e-09
-5.19173e-10
1.73612e-09
-5.28158e-10
1.95738e-09
-5.21781e-10
2.15146e-09
-4.86531e-10
2.28432e-09
-3.89867e-10
2.28687e-09
-1.52087e-10
2.02321e-09
4.23889e-10
1.26213e-09
1.8215e-09
5.08763e-09
-6.92134e-11
1.72887e-11
-2.3125e-11
9.41693e-11
-1.85022e-10
2.27993e-10
-3.40759e-10
4.08229e-10
-4.6578e-10
6.2562e-10
-5.65486e-10
8.7258e-10
-6.45627e-10
1.14267e-09
-7.10195e-10
1.42984e-09
-7.61012e-10
1.72766e-09
-7.98179e-10
2.02837e-09
-8.19888e-10
2.32141e-09
-8.21201e-10
2.59053e-09
-7.90899e-10
2.80841e-09
-7.04411e-10
2.92694e-09
-5.08396e-10
2.86191e-09
-8.70517e-11
2.47938e-09
8.06419e-10
1.62518e-09
2.6757e-09
6.35019e-09
3.62621e-10
2.98606e-11
-5.29855e-11
1.35395e-10
-2.90557e-10
3.11036e-10
-5.164e-10
5.44167e-10
-6.98911e-10
8.233e-10
-8.4462e-10
1.1386e-09
-9.60929e-10
1.48128e-09
-1.05287e-09
1.84262e-09
-1.12236e-09
2.21302e-09
-1.16858e-09
2.58063e-09
-1.18749e-09
2.92933e-09
-1.16991e-09
3.23537e-09
-1.09693e-09
3.46162e-09
-9.30658e-10
3.54937e-09
-5.96148e-10
3.4101e-09
5.2214e-11
2.93113e-09
1.28539e-09
2.03717e-09
3.56966e-09
7.51287e-09
8.74488e-10
4.52566e-11
-9.82421e-11
1.83786e-10
-4.29086e-10
4.05466e-10
-7.38079e-10
6.95365e-10
-9.8881e-10
1.03966e-09
-1.18892e-09
1.42608e-09
-1.34734e-09
1.8431e-09
-1.46989e-09
2.27888e-09
-1.55814e-09
2.71996e-09
-1.60966e-09
3.14968e-09
-1.61721e-09
3.54584e-09
-1.56608e-09
3.87721e-09
-1.4283e-09
4.09868e-09
-1.15213e-09
4.14641e-09
-6.43876e-10
3.93811e-09
2.60512e-10
3.39348e-09
1.83002e-09
2.50448e-09
4.45867e-09
8.55835e-09
1.45899e-09
6.30339e-11
-1.61276e-10
2.38349e-10
-6.04401e-10
5.09549e-10
-1.00928e-09
8.58997e-10
-1.33826e-09
1.2704e-09
-1.60033e-09
1.72886e-09
-1.8058e-09
2.21984e-09
-1.96087e-09
2.72791e-09
-2.0662e-09
3.23532e-09
-2.11707e-09
3.72023e-09
-2.10213e-09
4.15439e-09
-2.00024e-09
4.50019e-09
-1.77409e-09
4.70768e-09
-1.35963e-09
4.71403e-09
-6.50222e-10
4.45149e-09
5.23049e-10
3.87582e-09
2.40569e-09
3.02948e-09
5.30501e-09
9.47445e-09
2.11338e-09
8.25287e-11
-2.43805e-10
2.97402e-10
-8.19275e-10
6.20326e-10
-1.3322e-09
1.03045e-09
-1.74838e-09
1.50887e-09
-2.07874e-09
2.03791e-09
-2.33485e-09
2.59982e-09
-2.52277e-09
3.17534e-09
-2.64173e-09
3.74226e-09
-2.68398e-09
4.27364e-09
-2.63351e-09
4.73593e-09
-2.46253e-09
5.08718e-09
-2.12534e-09
5.27649e-09
-1.54893e-09
5.2477e-09
-6.21434e-10
4.95275e-09
8.17995e-10
4.38147e-09
2.97697e-09
3.60994e-09
6.07654e-09
1.02504e-08
2.83396e-09
1.02823e-10
-3.46627e-10
3.58466e-10
-1.07492e-09
7.33376e-10
-1.70711e-09
1.20298e-09
-2.21798e-09
1.74561e-09
-2.62138e-09
2.34081e-09
-2.93004e-09
2.96753e-09
-3.14949e-09
3.60274e-09
-3.27694e-09
4.21992e-09
-3.30117e-09
4.78772e-09
-3.2013e-09
5.26874e-09
-2.94356e-09
5.61934e-09
-2.47594e-09
5.79161e-09
-1.72121e-09
5.7405e-09
-5.70324e-10
5.43947e-09
1.11903e-09
4.90692e-09
3.50952e-09
4.23816e-09
6.74529e-09
1.08749e-08
3.61367e-09
1.22836e-10
-4.69463e-10
4.18176e-10
-1.37026e-09
8.42611e-10
-2.13155e-09
1.36738e-09
-2.74275e-09
1.96802e-09
-3.22202e-09
2.62133e-09
-3.58335e-09
3.30324e-09
-3.8314e-09
3.98723e-09
-3.96093e-09
4.64318e-09
-3.95712e-09
5.23649e-09
-3.79461e-09
5.72794e-09
-3.43501e-09
6.0751e-09
-2.82309e-09
6.23652e-09
-1.88263e-09
6.18086e-09
-5.14663e-10
5.90224e-09
1.39765e-09
5.44068e-09
3.97108e-09
4.89964e-09
7.28634e-09
1.13348e-08
4.43973e-09
1.18332e-10
-5.87795e-10
3.95025e-10
-1.64695e-09
7.8715e-10
-2.52367e-09
1.26673e-09
-3.22233e-09
1.81092e-09
-3.7662e-09
2.39829e-09
-4.17073e-09
3.00652e-09
-4.43963e-09
3.61114e-09
-4.56555e-09
4.18476e-09
-4.53074e-09
4.69694e-09
-4.30679e-09
5.11492e-09
-3.85299e-09
5.40589e-09
-3.11406e-09
5.54178e-09
-2.01852e-09
5.5073e-09
-4.80183e-10
5.31129e-09
1.59367e-09
4.99877e-09
4.2836e-09
4.6573e-09
7.62781e-09
1.1585e-08
4.40712e-09
1.48519e-10
-7.36314e-10
4.91863e-10
-1.9903e-09
9.71519e-10
-3.00333e-09
1.55219e-09
-3.803e-09
2.20569e-09
-4.41971e-09
2.90582e-09
-4.87086e-09
3.62538e-09
-5.1592e-09
4.33482e-09
-5.27499e-09
5.00176e-09
-5.19767e-09
5.59146e-09
-4.89649e-09
6.06865e-09
-4.33018e-09
6.40111e-09
-3.44652e-09
6.56577e-09
-2.18318e-09
6.55742e-09
-4.71839e-10
6.39898e-09
1.75211e-09
6.14985e-09
4.53273e-09
5.90653e-09
7.87113e-09
1.17037e-08
5.78782e-09
1.79641e-10
-9.15955e-10
5.91565e-10
-2.40222e-09
1.1593e-09
-3.57107e-09
1.83925e-09
-4.48295e-09
2.59778e-09
-5.17823e-09
3.40398e-09
-5.67705e-09
4.22615e-09
-5.98138e-09
5.03043e-09
-6.07927e-09
5.78077e-09
-5.94801e-09
6.44031e-09
-5.55603e-09
6.97437e-09
-4.86423e-09
7.35523e-09
-3.82738e-09
7.56897e-09
-2.39693e-09
7.62371e-09
-5.26571e-10
7.5573e-09
1.81852e-09
7.44121e-09
4.64881e-09
7.37599e-09
7.93635e-09
1.16049e-08
7.47485e-09
2.04579e-10
-1.12053e-09
6.70325e-10
-2.86797e-09
1.30471e-09
-4.20545e-09
2.05636e-09
-5.2346e-09
2.88741e-09
-6.00928e-09
3.76376e-09
-6.55341e-09
4.65122e-09
-6.86883e-09
5.51417e-09
-6.94222e-09
6.31627e-09
-6.75011e-09
7.02271e-09
-6.26247e-09
7.60415e-09
-5.44568e-09
8.04218e-09
-4.26541e-09
8.33584e-09
-2.69059e-09
8.5081e-09
-6.98828e-10
8.61017e-09
1.71644e-09
8.72097e-09
4.53801e-09
8.93924e-09
7.71808e-09
1.11759e-08
9.36817e-09
2.08921e-10
-1.32946e-09
6.81237e-10
-3.34028e-09
1.31797e-09
-4.84219e-09
2.0648e-09
-5.98143e-09
2.88366e-09
-6.82814e-09
3.74151e-09
-7.41126e-09
4.60631e-09
-7.73363e-09
5.44612e-09
-7.78204e-09
6.23033e-09
-7.53431e-09
6.93253e-09
-6.96467e-09
7.53477e-09
-6.04792e-09
8.03267e-09
-4.76331e-09
8.44054e-09
-3.09846e-09
8.7952e-09
-1.05349e-09
9.1569e-09
1.35475e-09
9.60561e-09
4.0893e-09
1.02321e-08
7.09161e-09
1.0283e-08
1.1125e-08
1.6812e-10
-1.49758e-09
5.44548e-10
-3.71671e-09
1.04677e-09
-5.34441e-09
1.63022e-09
-6.56489e-09
2.26572e-09
-7.46364e-09
2.92957e-09
-8.07511e-09
3.60037e-09
-8.40442e-09
4.25866e-09
-8.44032e-09
4.8884e-09
-8.16406e-09
5.47976e-09
-7.55604e-09
6.0327e-09
-6.60085e-09
6.56058e-09
-5.29119e-09
7.09315e-09
-3.63103e-09
7.67759e-09
-1.63794e-09
8.37694e-09
6.55401e-10
9.26518e-09
3.20106e-09
1.04191e-08
5.93765e-09
8.79319e-09
1.19089e-08
4.67536e-11
-1.54433e-09
1.46484e-10
-3.81644e-09
2.74501e-10
-5.47242e-09
4.19446e-10
-6.70983e-09
5.76491e-10
-7.62069e-09
7.44272e-10
-8.24289e-09
9.24244e-10
-8.5844e-09
1.1212e-09
-8.63728e-09
1.34457e-09
-8.38743e-09
1.61019e-09
-7.82166e-09
1.94221e-09
-6.93287e-09
2.37458e-09
-5.72356e-09
2.95154e-09
-4.20798e-09
3.72653e-09
-2.41293e-09
4.75938e-09
-3.77449e-10
6.11174e-09
1.8487e-09
7.84158e-09
4.20782e-09
6.63776e-09
9.99701e-09
-1.91601e-10
-1.35273e-09
-6.23766e-10
-3.38427e-09
-1.20785e-09
-4.88834e-09
-1.89219e-09
-6.02549e-09
-2.63824e-09
-6.87464e-09
-3.41003e-09
-7.4711e-09
-4.16986e-09
-7.82457e-09
-4.8764e-09
-7.93074e-09
-5.4839e-09
-7.77993e-09
-5.94199e-09
-7.36357e-09
-6.19606e-09
-6.6788e-09
-6.18818e-09
-5.73144e-09
-5.85875e-09
-4.53741e-09
-5.14888e-09
-3.1228e-09
-4.00351e-09
-1.52282e-09
-2.37523e-09
2.20421e-10
-2.2618e-10
2.05876e-09
3.94403e-09
2.46755e-09
-2.75243e-10
-1.07748e-09
-8.97911e-10
-2.76161e-09
-1.74229e-09
-4.04396e-09
-2.73803e-09
-5.02975e-09
-3.83519e-09
-5.77747e-09
-4.98951e-09
-6.31678e-09
-6.1565e-09
-6.65758e-09
-7.28932e-09
-6.79792e-09
-8.33846e-09
-6.73079e-09
-9.25245e-09
-6.44958e-09
-9.97921e-09
-5.95204e-09
-1.04678e-08
-5.24284e-09
-1.06704e-08
-4.33483e-09
-1.05441e-08
-3.24906e-09
-1.00532e-08
-2.01376e-09
-9.17004e-09
-6.62724e-10
-7.87803e-09
7.66754e-10
2.23606e-09
-6.17007e-09
-2.9373e-10
-7.83755e-10
-9.62875e-10
-2.09246e-09
-1.87892e-09
-3.12792e-09
-2.97051e-09
-3.93816e-09
-4.18661e-09
-4.56138e-09
-5.48204e-09
-5.02134e-09
-6.81185e-09
-5.32777e-09
-8.12915e-09
-5.48061e-09
-9.38494e-09
-5.475e-09
-1.05289e-08
-5.3056e-09
-1.1511e-08
-4.96995e-09
-1.22832e-08
-4.47067e-09
-1.28014e-08
-3.8166e-09
-1.30275e-08
-3.02293e-09
-1.29308e-08
-2.11052e-09
-1.24889e-08
-1.1046e-09
-1.1689e-08
-3.31527e-11
1.07436e-09
-1.05273e-08
-2.61852e-10
-5.21903e-10
-8.68604e-10
-1.48571e-09
-1.71253e-09
-2.28399e-09
-2.73253e-09
-2.91817e-09
-3.88316e-09
-3.41074e-09
-5.12381e-09
-3.7807e-09
-6.41423e-09
-4.03736e-09
-7.71277e-09
-4.18207e-09
-8.97605e-09
-4.21172e-09
-1.01596e-08
-4.12206e-09
-1.12191e-08
-3.91045e-09
-1.2112e-08
-3.57773e-09
-1.27994e-08
-3.12922e-09
-1.32474e-08
-2.57496e-09
-1.34286e-08
-1.92933e-09
-1.33231e-08
-1.21009e-09
-1.29189e-08
-4.37312e-10
3.67553e-10
-1.22121e-08
-2.06844e-10
-3.15059e-10
-7.01187e-10
-9.91367e-10
-1.40521e-09
-1.57996e-09
-2.27118e-09
-2.0522e-09
-3.26118e-09
-2.42074e-09
-4.341e-09
-2.70089e-09
-5.47711e-09
-2.90124e-09
-6.63519e-09
-3.02399e-09
-7.77959e-09
-3.06732e-09
-8.87366e-09
-3.02798e-09
-9.88066e-09
-2.90346e-09
-1.0765e-08
-2.69343e-09
-1.14935e-08
-2.40065e-09
-1.20372e-08
-2.03124e-09
-1.23721e-08
-1.59448e-09
-1.248e-08
-1.10222e-09
-1.23492e-08
-5.68103e-10
-7.03451e-12
-1.19746e-08
-1.47274e-10
-1.67785e-10
-5.18719e-10
-6.19922e-10
-1.06556e-09
-1.03312e-09
-1.75212e-09
-1.36564e-09
-2.54772e-09
-1.62514e-09
-3.42474e-09
-1.82388e-09
-4.35666e-09
-1.96932e-09
-5.31679e-09
-2.06386e-09
-6.27753e-09
-2.10658e-09
-7.2104e-09
-2.09512e-09
-8.08655e-09
-2.02731e-09
-8.87767e-09
-1.90231e-09
-9.55706e-09
-1.72126e-09
-1.01007e-08
-1.48758e-09
-1.04884e-08
-1.20685e-09
-1.0704e-08
-8.86531e-10
-1.07368e-08
-5.35381e-10
-1.6316e-10
-1.05806e-08
-9.39654e-11
-7.38195e-11
-3.5411e-10
-3.59778e-10
-7.54619e-10
-6.32607e-10
-1.26903e-09
-8.51231e-10
-1.87302e-09
-1.02115e-09
-2.54507e-09
-1.15182e-09
-3.26522e-09
-1.24917e-09
-4.01375e-09
-1.31533e-09
-4.77044e-09
-1.34989e-09
-5.51432e-09
-1.35124e-09
-6.22391e-09
-1.31772e-09
-6.87781e-09
-1.2484e-09
-7.45552e-09
-1.14356e-09
-7.93819e-09
-1.0049e-09
-8.3095e-09
-8.35544e-10
-8.55618e-09
-6.39853e-10
-8.66847e-09
-4.23091e-10
-1.91184e-10
-8.64044e-09
-5.1983e-11
-2.18364e-11
-2.21955e-10
-1.89805e-10
-4.99308e-10
-3.55254e-10
-8.64193e-10
-4.86346e-10
-1.29783e-09
-5.87511e-10
-1.78418e-09
-6.65464e-10
-2.30897e-09
-7.24383e-10
-2.85845e-09
-7.65852e-10
-3.41863e-09
-7.89713e-10
-3.9749e-09
-7.94967e-10
-4.51213e-09
-7.80481e-10
-5.01504e-09
-7.45491e-10
-5.46869e-09
-6.89912e-10
-5.85911e-09
-6.14477e-10
-6.17389e-09
-5.20763e-10
-6.40265e-09
-4.11092e-10
-6.53738e-09
-2.8836e-10
-1.55822e-10
-6.57274e-09
-2.26301e-11
7.93644e-13
-1.25273e-10
-8.71625e-11
-3.05428e-10
-1.75099e-10
-5.48187e-10
-2.43587e-10
-8.39738e-10
-2.9596e-10
-1.16886e-09
-3.36345e-10
-1.52599e-09
-3.67252e-10
-1.9022e-09
-3.89643e-10
-2.28844e-09
-4.0347e-10
-2.67522e-09
-4.08185e-10
-3.05258e-09
-4.03126e-10
-3.41027e-09
-3.87798e-10
-3.73815e-09
-3.62035e-10
-4.02654e-09
-3.26089e-10
-4.26666e-09
-2.80641e-10
-4.45098e-09
-2.26772e-10
-4.57346e-09
-1.65873e-10
-9.94935e-11
-4.62979e-09
-5.04904e-12
5.84268e-12
-6.07441e-11
-3.14674e-11
-1.6754e-10
-6.83033e-11
-3.14721e-10
-9.64051e-11
-4.9301e-10
-1.17671e-10
-6.9528e-10
-1.34075e-10
-9.15756e-10
-1.46776e-10
-1.14918e-09
-1.56215e-10
-1.39027e-09
-1.62382e-10
-1.63342e-09
-1.65035e-10
-1.87267e-09
-1.63876e-10
-2.10181e-09
-1.58663e-10
-2.31456e-09
-1.49281e-10
-2.50487e-09
-1.35784e-10
-2.66711e-09
-1.18399e-10
-2.79637e-09
-9.7518e-11
-2.88858e-09
-7.366e-11
-4.74095e-11
-2.94066e-09
2.82123e-12
3.02145e-12
-2.22935e-11
-6.35265e-12
-7.55188e-11
-1.50781e-11
-1.50333e-10
-2.15906e-11
-2.41549e-10
-2.64555e-11
-3.45414e-10
-3.02105e-11
-4.59033e-10
-3.31562e-11
-5.79843e-10
-3.54053e-11
-7.0527e-10
-3.6955e-11
-8.32559e-10
-3.77452e-11
-9.58736e-10
-3.76988e-11
-1.08065e-09
-3.67495e-11
-1.19507e-09
-3.48592e-11
-1.29883e-09
-3.20278e-11
-1.38893e-09
-2.82954e-11
-1.46271e-09
-2.37404e-11
-1.51791e-09
-1.84619e-11
-1.25939e-11
-1.55272e-09
3.02145e-12
-3.3312e-12
-1.84093e-11
-3.99999e-11
-6.64554e-11
-9.66659e-11
-1.29822e-10
-1.65227e-10
-2.02182e-10
-2.39928e-10
-2.77627e-10
-3.14376e-10
-3.49235e-10
-3.81263e-10
-4.09558e-10
-4.33299e-10
-4.51761e-10
-4.64355e-10
3.45174e-11
-3.45174e-11
1.1533e-10
-8.08126e-11
2.19834e-10
-1.04504e-10
3.28413e-10
-1.0858e-10
4.26097e-10
-9.76837e-11
5.01885e-10
-7.57877e-11
5.48025e-10
-4.61406e-11
5.59346e-10
-1.13206e-11
5.32605e-10
2.67413e-11
4.66037e-10
6.65671e-11
3.58828e-10
1.07209e-10
2.10786e-10
1.48043e-10
2.20599e-11
1.88726e-10
-2.07068e-10
2.29128e-10
-4.76326e-10
2.69259e-10
-7.85539e-10
3.09213e-10
-1.13466e-09
3.49122e-10
-1.52378e-09
3.89117e-10
-1.95307e-09
4.29289e-10
-2.42273e-09
4.69666e-10
-2.93292e-09
5.10189e-10
-3.48362e-09
5.50695e-10
-4.07453e-09
5.90913e-10
-4.70499e-09
6.30456e-10
-5.37381e-09
6.68822e-10
-6.07921e-09
7.05402e-10
-6.8187e-09
7.39487e-10
-7.58898e-09
7.70284e-10
-8.38591e-09
7.96931e-10
-9.20443e-09
8.18516e-10
-1.00385e-08
8.34105e-10
-1.08813e-08
8.42761e-10
-1.17249e-08
8.43576e-10
-1.25606e-08
8.35697e-10
-1.33789e-08
8.18361e-10
-1.41699e-08
7.90922e-10
-1.49227e-08
7.52882e-10
-1.56267e-08
7.03917e-10
-1.62706e-08
6.43904e-10
-1.68435e-08
5.7294e-10
-1.73349e-08
4.91356e-10
-1.77346e-08
3.99719e-10
-1.80334e-08
2.9884e-10
-1.82232e-08
1.89768e-10
-1.8297e-08
7.38486e-11
-1.8249e-08
-4.79986e-11
-1.80755e-08
-1.73524e-10
-1.77742e-08
-3.01312e-10
-1.73446e-08
-4.29572e-10
-1.67881e-08
-5.56483e-10
-1.61079e-08
-6.80266e-10
-1.53086e-08
-7.99224e-10
-1.43969e-08
-9.11783e-10
-1.33803e-08
-1.01653e-09
-1.22681e-08
-1.11225e-09
-1.10701e-08
-1.19795e-09
-9.79727e-09
-1.27286e-09
-8.46082e-09
-1.33645e-09
-7.0724e-09
-1.38842e-09
-5.64375e-09
-1.42865e-09
-4.18655e-09
-1.4572e-09
-2.7123e-09
-1.47425e-09
-1.23225e-09
-1.48005e-09
2.42624e-10
-1.47487e-09
1.70176e-09
-1.45914e-09
3.13484e-09
-1.43307e-09
4.53155e-09
-1.39672e-09
5.88184e-09
-1.35029e-09
7.17567e-09
-1.29383e-09
8.40297e-09
-1.2273e-09
9.55359e-09
-1.15062e-09
1.06173e-08
-1.06371e-09
1.15838e-08
-9.66546e-10
1.24431e-08
-8.5924e-10
1.31852e-08
-7.42119e-10
1.3801e-08
-6.15792e-10
1.42822e-08
-4.81218e-10
1.4622e-08
-3.39761e-10
1.48152e-08
-1.93211e-10
1.48591e-08
-4.38816e-11
1.47532e-08
1.05906e-10
1.45005e-08
2.52694e-10
1.41068e-08
3.93694e-10
1.35812e-08
5.25576e-10
1.29361e-08
6.45142e-10
1.21866e-08
7.49461e-10
1.13506e-08
8.3603e-10
1.04476e-08
9.02943e-10
9.49861e-09
9.49018e-10
8.52472e-09
9.73884e-10
7.54671e-09
9.78009e-10
6.58406e-09
9.62658e-10
5.65426e-09
9.298e-10
4.7723e-09
8.81957e-10
3.95027e-09
8.22029e-10
3.19716e-09
7.53112e-10
2.51883e-09
6.78327e-10
1.91813e-09
6.00699e-10
1.39507e-09
5.23058e-10
9.47087e-10
4.47986e-10
5.69327e-10
3.7776e-10
2.5504e-10
3.14287e-10
-3.97958e-12
2.59019e-10
-2.16841e-10
2.12862e-10
-3.92911e-10
1.7607e-10
-5.41151e-10
1.4824e-10
-6.69527e-10
1.28376e-10
-7.84552e-10
1.15025e-10
-8.91013e-10
1.0646e-10
-9.91911e-10
1.00898e-10
-1.08861e-09
9.66939e-11
-1.18109e-09
9.24838e-11
-1.26836e-09
8.72686e-11
-1.34879e-09
8.04306e-11
-1.42049e-09
7.17056e-11
-1.48162e-09
6.11241e-11
-1.53056e-09
4.89392e-11
-1.56611e-09
3.5555e-11
-1.58757e-09
2.14611e-11
-1.59476e-09
7.18905e-12
-1.58797e-09
-6.79524e-12
-1.568e-09
-1.99638e-11
-1.53604e-09
-3.19673e-11
-1.49356e-09
-4.24798e-11
-1.44228e-09
-5.12794e-11
-1.38404e-09
-5.8236e-11
-1.32073e-09
-6.33072e-11
-1.2542e-09
-6.65297e-11
-1.1862e-09
-6.8008e-11
-1.1183e-09
-6.79002e-11
-1.05189e-09
-6.64033e-11
-9.88154e-10
-6.37386e-11
-9.28016e-10
-6.01375e-11
-8.72186e-10
-5.58303e-11
-8.21151e-10
-5.10354e-11
-7.75198e-10
-4.59528e-11
-7.3444e-10
-4.07581e-11
-6.98839e-10
-3.56005e-11
-6.68238e-10
-3.06012e-11
-6.42384e-10
-2.58543e-11
-6.20955e-10
-2.14287e-11
-6.03584e-10
-1.73705e-11
-5.89878e-10
-1.37063e-11
-5.79432e-10
-1.04464e-11
-5.71844e-10
-7.5878e-12
-5.66726e-10
-5.11773e-12
-5.6371e-10
-3.01599e-12
-5.62444e-10
-1.26604e-12
-5.62649e-10
2.04492e-13
-5.63993e-10
1.34465e-12
-5.6625e-10
2.2563e-12
-5.69191e-10
2.94121e-12
-5.72622e-10
3.43146e-12
-5.76377e-10
3.75505e-12
-5.80315e-10
3.93803e-12
-5.8432e-10
4.00481e-12
-5.88298e-10
3.97804e-12
-5.92177e-10
3.8787e-12
-5.95903e-10
3.726e-12
-5.9944e-10
3.53731e-12
-6.02768e-10
3.32779e-12
-6.05878e-10
3.11001e-12
-6.08771e-10
2.89307e-12
-6.11453e-10
2.68175e-12
-6.13928e-10
2.47519e-12
-6.16194e-10
2.26555e-12
-6.1823e-10
2.03666e-12
-6.19993e-10
1.76253e-12
-6.21399e-10
1.40622e-12
-6.22317e-10
9.18022e-13
-6.22576e-10
2.58546e-13
-6.21874e-10
-7.01385e-13
-6.19883e-10
-1.99084e-12
-6.16139e-10
-3.74428e-12
-6.10024e-10
-6.11535e-12
-6.00686e-10
-9.3372e-12
-5.8681e-10
-1.38766e-11
-5.65504e-10
-2.13054e-11
-5.33474e-10
-3.20306e-11
-6.7724e-11
-4.6575e-10
5.58181e-11
-9.03355e-11
1.69981e-10
-1.94976e-10
3.01487e-10
-2.36009e-10
4.18256e-10
-2.25349e-10
4.94577e-10
-1.74005e-10
5.10427e-10
-9.16377e-11
4.50668e-10
1.36182e-11
3.04215e-10
1.35132e-10
6.32734e-11
2.67683e-10
-2.77467e-10
4.07307e-10
-7.21393e-10
5.51136e-10
-1.27055e-09
6.97199e-10
-1.92607e-09
8.44247e-10
-2.68852e-09
9.91576e-10
-3.55812e-09
1.13886e-09
-4.53489e-09
1.28599e-09
-5.61873e-09
1.43295e-09
-6.80932e-09
1.57971e-09
-8.10612e-09
1.72609e-09
-9.50814e-09
1.87169e-09
-1.10138e-08
2.01585e-09
-1.26207e-08
2.15757e-09
-1.43253e-08
2.29552e-09
-1.61228e-08
2.428e-09
-1.8007e-08
2.55298e-09
-1.99697e-08
2.66812e-09
-2.2001e-08
2.77081e-09
-2.40889e-08
2.85821e-09
-2.62194e-08
2.92738e-09
-2.83762e-08
2.97529e-09
-3.0541e-08
2.99895e-09
-3.26938e-08
2.9955e-09
-3.48125e-08
2.96228e-09
-3.68737e-08
2.89696e-09
-3.8853e-08
2.79761e-09
-4.07249e-08
2.66283e-09
-4.24638e-08
2.49175e-09
-4.4044e-08
2.28419e-09
-4.54408e-08
2.04064e-09
-4.66302e-08
1.76232e-09
-4.759e-08
1.45118e-09
-4.83001e-08
1.10988e-09
-4.87431e-08
7.41785e-10
-4.89042e-08
3.50856e-10
-4.87722e-08
-5.81176e-11
-4.83391e-08
-4.81118e-10
-4.76008e-08
-9.118e-10
-4.65571e-08
-1.34501e-09
-4.52115e-08
-1.77518e-09
-4.35712e-08
-2.1968e-09
-4.16469e-08
-2.6046e-09
-3.94525e-08
-2.99362e-09
-3.70049e-08
-3.35938e-09
-3.43234e-08
-3.69794e-09
-3.14297e-08
-4.00597e-09
-2.83469e-08
-4.28082e-09
-2.50992e-08
-4.52053e-09
-2.17118e-08
-4.72381e-09
-1.82103e-08
-4.88998e-09
-1.462e-08
-5.01894e-09
-1.09661e-08
-5.11103e-09
-7.2735e-09
-5.1669e-09
-3.56614e-09
-5.18741e-09
1.32425e-10
-5.17343e-09
3.79904e-09
-5.12576e-09
7.41096e-09
-5.04499e-09
1.09458e-08
-4.93158e-09
1.43813e-08
-4.78574e-09
1.76948e-08
-4.60732e-09
2.08633e-08
-4.39586e-09
2.38634e-08
-4.15072e-09
2.66709e-08
-3.87116e-09
2.92609e-08
-3.55662e-09
3.16085e-08
-3.20683e-09
3.36886e-08
-2.82215e-09
3.54765e-08
-2.40378e-09
3.69493e-08
-1.95397e-09
3.80858e-08
-1.47628e-09
3.88683e-08
-9.75734e-10
3.92833e-08
-4.58857e-10
3.93224e-08
6.6779e-11
3.89846e-08
5.90483e-10
3.82753e-08
1.103e-09
3.72083e-08
1.59266e-09
3.58054e-08
2.04802e-09
3.40969e-08
2.45793e-09
3.21208e-08
2.81217e-09
2.99216e-08
3.10214e-09
2.75492e-08
3.3214e-09
2.50569e-08
3.46615e-09
2.24994e-08
3.53553e-09
1.99304e-08
3.53165e-09
1.74007e-08
3.45951e-09
1.49561e-08
3.32658e-09
1.26358e-08
3.14224e-09
1.04717e-08
2.91724e-09
8.48709e-09
2.66296e-09
6.69688e-09
2.39091e-09
5.10768e-09
2.11225e-09
3.7183e-09
1.83738e-09
2.52045e-09
1.57561e-09
1.49987e-09
1.33487e-09
6.37618e-10
1.12127e-09
-8.83317e-11
9.38811e-10
-7.01353e-10
7.89092e-10
-1.22435e-09
6.71233e-10
-1.67812e-09
5.82153e-10
-2.08018e-09
5.17082e-10
-2.44393e-09
4.70207e-10
-2.77845e-09
4.35417e-10
-3.08874e-09
4.06986e-10
-3.37635e-09
3.80095e-10
-3.64021e-09
3.51129e-10
-3.87755e-09
3.17774e-10
-4.08479e-09
2.78943e-10
-4.25825e-09
2.34587e-10
-4.39477e-09
1.85461e-10
-4.4921e-09
1.32878e-10
-4.54911e-09
7.84717e-11
-4.56593e-09
2.40139e-11
-4.54395e-09
-2.87746e-11
-4.48564e-09
-7.8279e-11
-4.39445e-09
-1.23158e-10
-4.27459e-09
-1.62342e-10
-4.13079e-09
-1.95077e-10
-3.96809e-09
-2.20936e-10
-3.7916e-09
-2.39795e-10
-3.60632e-09
-2.51812e-10
-3.41694e-09
-2.57382e-10
-3.22776e-09
-2.57086e-10
-3.04252e-09
-2.51645e-10
-2.86439e-09
-2.41866e-10
-2.69593e-09
-2.28591e-10
-2.5391e-09
-2.12661e-10
-2.39527e-09
-1.94874e-10
-2.26525e-09
-1.75964e-10
-2.14943e-09
-1.56581e-10
-2.04775e-09
-1.37277e-10
-1.95985e-09
-1.18507e-10
-1.88508e-09
-1.00626e-10
-1.82261e-09
-8.38992e-11
-1.77147e-09
-6.85068e-11
-1.73062e-09
-5.45576e-11
-1.69896e-09
-4.20992e-11
-1.67542e-09
-3.11297e-11
-1.65893e-09
-2.16088e-11
-1.64848e-09
-1.34677e-11
-1.64313e-09
-6.61817e-12
-1.64198e-09
-9.46245e-13
-1.64427e-09
3.63343e-12
-1.64926e-09
7.25356e-12
-1.65634e-09
1.00194e-11
-1.66495e-09
1.20386e-11
-1.67461e-09
1.34146e-11
-1.68492e-09
1.42452e-11
-1.69553e-09
1.46222e-11
-1.70619e-09
1.4631e-11
-1.71666e-09
1.43506e-11
-1.72679e-09
1.38533e-11
-1.73645e-09
1.32043e-11
-1.74558e-09
1.24599e-11
-1.75414e-09
1.16664e-11
-1.7621e-09
1.08566e-11
-1.76947e-09
1.00465e-11
-1.77622e-09
9.23086e-12
-1.78234e-09
8.37781e-12
-1.78772e-09
7.42426e-12
-1.79223e-09
6.27077e-12
-1.7956e-09
4.77789e-12
-1.79745e-09
2.7611e-12
-1.79721e-09
1.6882e-14
-1.79412e-09
-3.78373e-12
-1.7872e-09
-8.91279e-12
-1.77515e-09
-1.57996e-11
-1.75628e-09
-2.49789e-11
-1.72837e-09
-3.72518e-11
-1.68815e-09
-5.40902e-11
-1.63064e-09
-7.88178e-11
-1.54666e-09
-1.16009e-10
-1.9121e-10
-1.42318e-09
3.76457e-11
-1.27981e-10
9.67275e-11
-2.54058e-10
1.34955e-10
-2.74236e-10
1.19219e-10
-2.09613e-10
2.30507e-11
-7.78366e-11
-1.74581e-10
1.05994e-10
-4.90144e-10
3.29181e-10
-9.36289e-10
5.81278e-10
-1.52253e-09
8.5392e-10
-2.25585e-09
1.14063e-09
-3.14128e-09
1.43656e-09
-4.1823e-09
1.73822e-09
-5.38126e-09
2.0432e-09
-6.73958e-09
2.3499e-09
-8.25797e-09
2.65725e-09
-9.93647e-09
2.96449e-09
-1.17744e-08
3.27092e-09
-1.37704e-08
3.57572e-09
-1.59221e-08
3.87774e-09
-1.82258e-08
4.17543e-09
-2.06767e-08
4.46667e-09
-2.32678e-08
4.74873e-09
-2.59906e-08
5.01827e-09
-2.88339e-08
5.2713e-09
-3.17842e-08
5.50329e-09
-3.48253e-08
5.70918e-09
-3.7938e-08
5.88357e-09
-4.11006e-08
6.02079e-09
-4.42883e-08
6.11509e-09
-4.74738e-08
6.16082e-09
-5.06275e-08
6.1526e-09
-5.37175e-08
6.08551e-09
-5.67105e-08
5.95527e-09
-5.9572e-08
5.75842e-09
-6.22668e-08
5.49247e-09
-6.476e-08
5.15605e-09
-6.70173e-08
4.74899e-09
-6.90055e-08
4.27242e-09
-7.06937e-08
3.7288e-09
-7.20532e-08
3.12191e-09
-7.30589e-08
2.45681e-09
-7.36888e-08
1.73978e-09
-7.39252e-08
9.7818e-10
-7.37547e-08
1.80366e-10
-7.31682e-08
-6.44611e-10
-7.21622e-08
-1.48708e-09
-7.07372e-08
-2.33687e-09
-6.88984e-08
-3.1838e-09
-6.66557e-08
-4.01784e-09
-6.40233e-08
-4.82923e-09
-6.10191e-08
-5.60879e-09
-5.76646e-08
-6.34807e-09
-5.39845e-08
-7.03953e-09
-5.00058e-08
-7.67667e-09
-4.57576e-08
-8.25415e-09
-4.12706e-08
-8.76783e-09
-3.65763e-08
-9.21476e-09
-3.1707e-08
-9.59316e-09
-2.66946e-08
-9.90233e-09
-2.15711e-08
-1.01425e-08
-1.63677e-08
-1.03145e-08
-1.11148e-08
-1.04198e-08
-5.84204e-09
-1.04602e-08
-5.78218e-10
-1.04373e-08
4.6484e-09
-1.03524e-08
9.80983e-09
-1.02064e-08
1.48784e-08
-1.00001e-08
1.98261e-08
-9.73344e-09
2.46244e-08
-9.40566e-09
2.92439e-08
-9.0154e-09
3.3654e-08
-8.56078e-09
3.78225e-08
-8.03968e-09
4.1716e-08
-7.45009e-09
4.52997e-08
-6.79049e-09
4.85378e-08
-6.06029e-09
5.13944e-08
-5.26037e-09
5.38339e-08
-4.39349e-09
5.58224e-08
-3.46479e-09
5.73289e-08
-2.48216e-09
5.83265e-08
-1.45648e-09
5.8795e-08
-4.01709e-10
5.87207e-08
6.647e-10
5.81005e-08
1.72326e-09
5.69412e-08
2.75196e-09
5.52617e-08
3.72753e-09
5.30932e-08
4.62641e-09
5.04794e-08
5.42594e-09
4.74759e-08
6.10572e-09
4.41484e-08
6.64891e-09
4.0571e-08
7.04347e-09
3.68235e-08
7.28305e-09
3.29876e-08
7.36757e-09
2.91438e-08
7.30326e-09
2.53682e-08
7.10224e-09
2.17288e-08
6.78165e-09
1.82835e-08
6.36249e-09
1.50783e-08
5.8682e-09
1.21458e-08
5.32341e-09
9.50535e-09
4.75268e-09
7.16332e-09
4.17941e-09
5.11401e-09
3.62492e-09
3.34133e-09
3.10754e-09
1.8209e-09
2.6417e-09
5.22567e-10
2.23715e-09
-5.86818e-10
1.89848e-09
-1.54056e-09
1.62497e-09
-2.36955e-09
1.41115e-09
-3.10035e-09
1.24788e-09
-3.75391e-09
1.12376e-09
-4.34511e-09
1.02662e-09
-4.88306e-09
9.44928e-10
-5.37182e-09
8.68859e-10
-5.81164e-09
7.90954e-10
-6.20021e-09
7.06335e-10
-6.53385e-09
6.12584e-10
-6.80866e-09
5.09404e-10
-7.02135e-09
3.98144e-10
-7.16978e-09
2.81309e-10
-7.2534e-09
1.6209e-10
-7.27335e-09
4.39657e-11
-7.23249e-09
-6.96303e-11
-7.13522e-09
-1.7555e-10
-6.98726e-09
-2.71119e-10
-6.79536e-09
-3.54247e-10
-6.56695e-09
-4.23482e-10
-6.30986e-09
-4.78026e-10
-6.03196e-09
-5.177e-10
-5.74088e-09
-5.4289e-10
-5.4438e-09
-5.5446e-10
-5.14723e-09
-5.53654e-10
-4.85689e-09
-5.4199e-10
-4.57759e-09
-5.21161e-10
-4.31325e-09
-4.92933e-10
-4.06685e-09
-4.59064e-10
-3.84049e-09
-4.21228e-10
-3.63549e-09
-3.80965e-10
-3.45243e-09
-3.3964e-10
-3.29129e-09
-2.98422e-10
-3.15152e-09
-2.58274e-10
-3.03219e-09
-2.19958e-10
-2.93205e-09
-1.84041e-10
-2.84964e-09
-1.50919e-10
-2.78336e-09
-1.20833e-10
-2.73157e-09
-9.38956e-11
-2.69258e-09
-7.01156e-11
-2.66477e-09
-4.94167e-11
-2.64658e-09
-3.16612e-11
-2.63653e-09
-1.66663e-11
-2.63326e-09
-4.21827e-12
-2.63553e-09
5.9067e-12
-2.64223e-09
1.39488e-11
-2.65235e-09
2.01424e-11
-2.66503e-09
2.47162e-11
-2.6795e-09
2.78904e-11
-2.69513e-09
2.98736e-11
-2.71137e-09
3.08619e-11
-2.72778e-09
3.10381e-11
-2.744e-09
3.0571e-11
-2.75976e-09
2.96153e-11
-2.77486e-09
2.83092e-11
-2.78918e-09
2.67725e-11
-2.80261e-09
2.51018e-11
-2.81512e-09
2.3365e-11
-2.82667e-09
2.15933e-11
-2.83721e-09
1.97719e-11
-2.84666e-09
1.78298e-11
-2.85487e-09
1.5629e-11
-2.86155e-09
1.29552e-11
-2.86628e-09
9.50993e-12
-2.86843e-09
4.90583e-12
-2.86708e-09
-1.33035e-12
-2.86107e-09
-9.79149e-12
-2.84884e-09
-2.11459e-11
-2.82841e-09
-3.62301e-11
-2.79728e-09
-5.61102e-11
-2.75222e-09
-8.23054e-11
-2.68897e-09
-1.17341e-10
-2.60184e-09
-1.65949e-10
-2.48156e-09
-2.36295e-10
-3.43342e-10
-2.32942e-09
-3.99472e-12
-1.23986e-10
-5.59288e-11
-2.02124e-10
-1.88985e-10
-1.4118e-10
-4.29824e-10
3.12259e-11
-7.99794e-10
2.92134e-10
-1.31605e-09
6.22251e-10
-1.99223e-09
1.00536e-09
-2.83908e-09
1.42813e-09
-3.86503e-09
1.87987e-09
-5.07659e-09
2.35219e-09
-6.47872e-09
2.83869e-09
-8.07509e-09
3.33459e-09
-9.86822e-09
3.83633e-09
-1.18596e-08
4.34127e-09
-1.40496e-08
4.84728e-09
-1.64376e-08
5.35244e-09
-1.90214e-08
5.85476e-09
-2.17976e-08
6.35188e-09
-2.47607e-08
6.84087e-09
-2.79033e-08
7.31808e-09
-3.12157e-08
7.77902e-09
-3.46853e-08
8.21829e-09
-3.82966e-08
8.62959e-09
-4.20311e-08
9.0058e-09
-4.58669e-08
9.33909e-09
-4.97788e-08
9.6211e-09
-5.37383e-08
9.84312e-09
-5.77139e-08
9.99638e-09
-6.16712e-08
1.00723e-08
-6.55731e-08
1.00628e-08
-6.9381e-08
9.96048e-09
-7.30546e-08
9.75908e-09
-7.65529e-08
9.45356e-09
-7.98349e-08
9.04042e-09
-8.28602e-08
8.51782e-09
-8.559e-08
7.88579e-09
-8.79872e-08
7.14625e-09
-9.00179e-08
6.30308e-09
-9.16511e-08
5.36207e-09
-9.28601e-08
4.33088e-09
-9.36222e-08
3.21887e-09
-9.39194e-08
2.03696e-09
-9.37386e-08
7.97431e-10
-9.3072e-08
-4.8628e-10
-9.19165e-08
-1.80006e-09
-9.02745e-08
-3.12907e-09
-8.8153e-08
-4.45839e-09
-8.55636e-08
-5.77318e-09
-8.25225e-08
-7.059e-09
-7.90496e-08
-8.30209e-09
-7.51687e-08
-9.48966e-09
-7.09067e-08
-1.06101e-08
-6.6293e-08
-1.16533e-08
-6.13591e-08
-1.26105e-08
-5.61383e-08
-1.3475e-08
-5.06647e-08
-1.42414e-08
-4.49729e-08
-1.49065e-08
-3.90977e-08
-1.54684e-08
-3.30734e-08
-1.59267e-08
-2.69334e-08
-1.62824e-08
-2.07105e-08
-1.65374e-08
-1.4436e-08
-1.66943e-08
-8.14032e-09
-1.67558e-08
-1.85283e-09
-1.67247e-08
4.398e-09
-1.66032e-08
1.05841e-08
-1.63925e-08
1.66771e-08
-1.60931e-08
2.26484e-08
-1.57047e-08
2.84684e-08
-1.52257e-08
3.4106e-08
-1.46531e-08
3.95285e-08
-1.39833e-08
4.47007e-08
-1.32119e-08
4.95854e-08
-1.23347e-08
5.41426e-08
-1.13477e-08
5.83306e-08
-1.02483e-08
6.21059e-08
-9.03568e-09
6.54242e-08
-7.71175e-09
6.82413e-08
-6.28185e-09
7.05145e-08
-4.75541e-09
7.22045e-08
-3.14648e-09
7.32769e-08
-1.47411e-09
7.37041e-08
2.37466e-10
7.34682e-08
1.95918e-09
7.25626e-08
3.65762e-09
7.09939e-08
5.29621e-09
6.87838e-08
6.83645e-09
6.597e-08
8.2398e-09
6.2606e-08
9.46966e-09
5.87613e-08
1.04937e-08
5.45186e-08
1.12861e-08
4.99722e-08
1.18295e-08
4.52233e-08
1.21165e-08
4.03763e-08
1.21503e-08
3.55337e-08
1.19448e-08
3.07917e-08
1.15236e-08
2.62358e-08
1.09184e-08
2.19374e-08
1.01666e-08
1.79515e-08
9.30932e-09
1.43154e-08
8.38875e-09
1.10486e-08
7.44617e-09
8.15375e-09
6.51982e-09
5.61825e-09
5.64305e-09