/*--------------------------------*- C++ -*----------------------------------*\
  =========                 |
  \\      /  F ield         | OpenFOAM: The Open Source CFD Toolbox
   \\    /   O peration     | Website:  https://openfoam.org
    \\  /    A nd           | Version:  8
     \\/     M anipulation  |
\*---------------------------------------------------------------------------*/
FoamFile
{
    version     2.0;
    format      ascii;
    class       volVectorField;
    location    "1";
    object      U;
}
// * * * * * * * * * * * * * * * * * * * * * * * * * * * * * * * * * * * * * //

dimensions      [0 1 -1 0 0 0 0];

internalField   nonuniform List<vector> 
12225
(
(-6.0614e-06 8.21345e-07 0)
(-2.65923e-06 -4.70653e-07 0)
(2.39238e-05 -1.17934e-06 0)
(6.65873e-05 -1.79354e-06 0)
(0.000122103 -2.3092e-06 0)
(0.000187781 -2.79192e-06 0)
(0.000262051 -3.26406e-06 0)
(0.000343803 -3.74857e-06 0)
(0.000432282 -4.26745e-06 0)
(0.000527022 -4.85373e-06 0)
(0.000627868 -5.56154e-06 0)
(0.000735 -6.48183e-06 0)
(0.000848899 -7.77416e-06 0)
(0.000969702 -9.67336e-06 0)
(0.00109449 -1.17907e-05 0)
(0.0012119 -9.70194e-06 0)
(0.00124456 -7.75356e-06 0)
(-0.000104962 0.000899232 0)
(-1.23893e-05 2.07643e-06 0)
(5.07042e-06 -7.25545e-06 0)
(8.54211e-05 -1.6376e-05 0)
(0.000211708 -2.41456e-05 0)
(0.000374902 -3.09428e-05 0)
(0.000567371 -3.71807e-05 0)
(0.000784234 -4.31266e-05 0)
(0.00102178 -4.8952e-05 0)
(0.00127708 -5.47891e-05 0)
(0.00154767 -6.0775e-05 0)
(0.00183124 -6.70592e-05 0)
(0.00212514 -7.37346e-05 0)
(0.00242476 -8.05269e-05 0)
(0.00271893 -8.55121e-05 0)
(0.00297673 -7.92542e-05 0)
(0.00310721 -1.70391e-05 0)
(0.00285522 0.000287033 0)
(0.000255751 0.00226845 0)
(-1.43318e-05 2.37087e-06 0)
(2.47955e-05 -2.31023e-05 0)
(0.000161473 -4.93676e-05 0)
(0.000371983 -7.20289e-05 0)
(0.00064215 -9.19974e-05 0)
(0.000959703 -0.000110243 0)
(0.00131621 -0.000127439 0)
(0.00170487 -0.000143958 0)
(0.00211978 -0.000159998 0)
(0.0025552 -0.000175622 0)
(0.00300468 -0.000190628 0)
(0.00345932 -0.000204044 0)
(0.00390375 -0.000212543 0)
(0.00430597 -0.000205535 0)
(0.00459275 -0.000148371 0)
(0.0045822 7.74022e-05 0)
(0.00389474 0.000878822 0)
(0.000826863 0.00389039 0)
(-1.29633e-05 -1.61109e-07 0)
(5.48974e-05 -5.08032e-05 0)
(0.000250389 -0.000103849 0)
(0.00054504 -0.000150131 0)
(0.000920211 -0.000191094 0)
(0.00135935 -0.000228384 0)
(0.00185028 -0.000263169 0)
(0.0023826 -0.000295982 0)
(0.00294659 -0.000326887 0)
(0.00353191 -0.000355426 0)
(0.00412593 -0.00038014 0)
(0.00471047 -0.000397116 0)
(0.0052551 -0.000396066 0)
(0.0057022 -0.000349721 0)
(0.00593618 -0.000183446 0)
(0.00571446 0.000312191 0)
(0.00463842 0.0017253 0)
(0.00153708 0.00561022 0)
(-9.20435e-06 -7.69219e-06 0)
(9.34744e-05 -9.30229e-05 0)
(0.000349777 -0.000182516 0)
(0.000727524 -0.000261378 0)
(0.00120421 -0.000331396 0)
(0.00175939 -0.000394889 0)
(0.00237698 -0.000453472 0)
(0.00304253 -0.000507647 0)
(0.00374165 -0.000556932 0)
(0.00445821 -0.000599579 0)
(0.00517166 -0.000631468 0)
(0.00585243 -0.000643195 0)
(0.00645309 -0.000613008 0)
(0.00689133 -0.000489784 0)
(0.00702085 -0.00015125 0)
(0.00658238 0.00069462 0)
(0.00523911 0.00272595 0)
(0.00233351 0.00727109 0)
(-3.82359e-06 -2.22693e-05 0)
(0.000138333 -0.00015266 0)
(0.000456467 -0.000288346 0)
(0.000914964 -0.000408878 0)
(0.00148787 -0.000516126 0)
(0.00215123 -0.000612951 0)
(0.00288499 -0.000701218 0)
(0.00367022 -0.000781036 0)
(0.00448724 -0.000850741 0)
(0.00531314 -0.000906225 0)
(0.0061184 -0.000938946 0)
(0.00686128 -0.000931212 0)
(0.00747826 -0.00084578 0)
(0.00786834 -0.000603483 0)
(0.00787231 -3.59729e-05 0)
(0.00725321 0.00120554 0)
(0.0057767 0.00380216 0)
(0.00317527 0.00881159 0)
(2.52024e-06 -4.57763e-05 0)
(0.000187001 -0.00023268 0)
(0.00056652 -0.000424399 0)
(0.00110173 -0.000595691 0)
(0.00176345 -0.000748269 0)
(0.00252458 -0.000885314 0)
(0.0033611 -0.00100858 0)
(0.00424942 -0.00111726 0)
(0.00516409 -0.00120767 0)
(0.00607497 -0.00127204 0)
(0.00694339 -0.00129555 0)
(0.00771628 -0.00124971 0)
(0.00831761 -0.00107924 0)
(0.00863692 -0.000676851 0)
(0.00852061 0.00016242 0)
(0.00777979 0.00181203 0)
(0.00628937 0.00489527 0)
(0.00403567 0.0102094 0)
(9.25447e-06 -7.98761e-05 0)
(0.000236765 -0.000335831 0)
(0.000675242 -0.000593411 0)
(0.00128101 -0.000824297 0)
(0.00202172 -0.00102994 0)
(0.00286745 -0.00121353 0)
(0.0037904 -0.00137625 0)
(0.00476228 -0.00151564 0)
(0.00575186 -0.00162503 0)
(0.00672192 -0.00169168 0)
(0.00762545 -0.00169276 0)
(0.00840051 -0.00158736 0)
(0.008964 -0.00130172 0)
(0.00920632 -0.000704431 0)
(0.00899455 0.000431717 0)
(0.0081992 0.00247478 0)
(0.00678971 0.00595687 0)
(0.00489437 0.0114503 0)
(1.58804e-05 -0.000125882 0)
(0.000284726 -0.000464351 0)
(0.000777273 -0.000797427 0)
(0.00144492 -0.00109619 0)
(0.00225206 -0.00136192 0)
(0.00316634 -0.0015975 0)
(0.00415648 -0.0018029 0)
(0.00518982 -0.00197327 0)
(0.00622973 -0.00209791 0)
(0.00723283 -0.00215789 0)
(0.00814561 -0.00212123 0)
(0.00890088 -0.0019341 0)
(0.0094148 -0.00150623 0)
(0.00958791 -0.000689205 0)
(0.00931749 0.000750561 0)
(0.00853282 0.0031523 0)
(0.00727358 0.00694529 0)
(0.00573171 0.0125207 0)
(2.19551e-05 -0.000184596 0)
(0.000327868 -0.000619616 0)
(0.000866713 -0.00103738 0)
(0.00158461 -0.00141145 0)
(0.00244265 -0.00174324 0)
(0.00340648 -0.00203501 0)
(0.00444186 -0.00228491 0)
(0.00551238 -0.00248487 0)
(0.00657703 -0.00261922 0)
(0.00758779 -0.00266197 0)
(0.00848736 -0.0025716 0)
(0.00920754 -0.00228235 0)
(0.00966988 -0.00169128 0)
(0.00979187 -0.000641872 0)
(0.00950455 0.00109127 0)
(0.00878759 0.00380352 0)
(0.00772559 0.00782432 0)
(0.00652578 0.0134066 0)
(2.70823e-05 -0.000256201 0)
(0.000363145 -0.000801685 0)
(0.000937305 -0.00131259 0)
(0.00169055 -0.00176817 0)
(0.00258082 -0.00217059 0)
(0.00357226 -0.00252126 0)
(0.00462844 -0.0028159 0)
(0.00571026 -0.00304251 0)
(0.00677378 -0.00317977 0)
(0.00776853 -0.00319425 0)
(0.00863654 -0.00303537 0)
(0.00931291 -0.00262772 0)
(0.00972947 -0.00186094 0)
(0.00982443 -0.000579424 0)
(0.00956114 0.00142258 0)
(0.00895767 0.00438947 0)
(0.00812209 0.0085622 0)
(0.00725051 0.0140926 0)
(3.06845e-05 -0.000333282 0)
(0.000385652 -0.000991592 0)
(0.00097898 -0.00159455 0)
(0.00174783 -0.00212911 0)
(0.00264761 -0.00259888 0)
(0.0036417 -0.00300449 0)
(0.00469265 -0.003339 0)
(0.00576015 -0.00358629 0)
(0.00679929 -0.00371961 0)
(0.00775969 -0.00369892 0)
(0.00858575 -0.0034666 0)
(0.00921897 -0.00294132 0)
(0.00960362 -0.00201109 0)
(0.00969748 -0.000528346 0)
(0.00948924 0.00168794 0)
(0.00902066 0.00483484 0)
(0.00840672 0.00908545 0)
(0.00782266 0.0145252 0)
(3.34359e-05 -0.000418162 0)
(0.00039791 -0.00119683 0)
(0.000996548 -0.0018952 0)
(0.00176425 -0.00251017 0)
(0.00265434 -0.00304748 0)
(0.00363011 -0.00350702 0)
(0.0046541 -0.00387904 0)
(0.0056861 -0.00414315 0)
(0.00668191 -0.00426724 0)
(0.00759325 -0.0042054 0)
(0.00836923 -0.00389458 0)
(0.00895994 -0.00325043 0)
(0.00932317 -0.00216359 0)
(0.00943503 -0.000499179 0)
(0.00930429 0.0018962 0)
(0.00898734 0.00517508 0)
(0.00859677 0.00945489 0)
(0.00828438 0.0147732 0)
(3.52096e-05 -0.000523114 0)
(0.000396467 -0.00144824 0)
(0.000980395 -0.00225842 0)
(0.00172199 -0.00296567 0)
(0.00257337 -0.00357909 0)
(0.00349881 -0.00409788 0)
(0.00446241 -0.00450902 0)
(0.00542594 -0.00478734 0)
(0.00634825 -0.00489515 0)
(0.00718603 -0.00478114 0)
(0.00789625 -0.0043786 0)
(0.00844062 -0.00360361 0)
(0.00879239 -0.00235456 0)
(0.00894549 -0.000515414 0)
(0.00892475 0.00203471 0)
(0.00879375 0.00540342 0)
(0.00865521 0.00965906 0)
(0.00863473 0.0148031 0)
(3.4849e-05 -0.000646926 0)
(0.000372042 -0.00174309 0)
(0.000909239 -0.00267908 0)
(0.00158549 -0.00348748 0)
(0.00235423 -0.00418257 0)
(0.00318266 -0.00476312 0)
(0.00403875 -0.00521282 0)
(0.00488901 -0.00550168 0)
(0.00569852 -0.005587 0)
(0.00643233 -0.00541364 0)
(0.00705849 -0.00491417 0)
(0.00755251 -0.00400952 0)
(0.00790336 -0.00261129 0)
(0.00812007 -0.000627229 0)
(0.00823752 0.00202898 0)
(0.00831886 0.00542327 0)
(0.0084515 0.00958412 0)
(0.00873442 0.0144881 0)
(3.08587e-05 -0.000781895 0)
(0.000313045 -0.00206296 0)
(0.000756655 -0.00313066 0)
(0.00131062 -0.00404175 0)
(0.00193463 -0.00481785 0)
(0.00260182 -0.00545806 0)
(0.00328726 -0.00594334 0)
(0.00396571 -0.00623984 0)
(0.00461208 -0.00630148 0)
(0.0052032 -0.006072 0)
(0.00572062 -0.00548709 0)
(0.00615444 -0.0044771 0)
(0.00650756 -0.0029711 0)
(0.0067995 -0.000902905 0)
(0.00706854 0.00178079 0)
(0.00737093 0.00511082 0)
(0.00777584 0.00908624 0)
(0.00835738 0.0136683 0)
(2.16558e-05 -0.000908004 0)
(0.000207382 -0.00236064 0)
(0.000495325 -0.00354728 0)
(0.000851857 -0.00454828 0)
(0.00125026 -0.00539391 0)
(0.00167392 -0.00608475 0)
(0.00210874 -0.00660058 0)
(0.00254144 -0.00690577 0)
(0.0029602 -0.00695366 0)
(0.00335611 -0.00669037 0)
(0.00372538 -0.00605846 0)
(0.00407172 -0.00500107 0)
(0.00440869 -0.00346642 0)
(0.0047611 -0.00141309 0)
(0.00516492 0.00118448 0)
(0.00566529 0.00433077 0)
(0.00631268 0.00800567 0)
(0.00715934 0.0121631 0)
(5.96854e-06 -0.000985326 0)
(4.73061e-05 -0.00254271 0)
(0.000108699 -0.00379999 0)
(0.000182014 -0.0048529 0)
(0.000262418 -0.00573877 0)
(0.000348364 -0.00646073 0)
(0.00043991 -0.00699964 0)
(0.000538606 -0.00732122 0)
(0.000648027 -0.00738175 0)
(0.000774638 -0.00713306 0)
(0.000928826 -0.00652718 0)
(0.00112587 -0.00552079 0)
(0.00138653 -0.00407945 0)
(0.00173697 -0.00218142 0)
(0.00220761 0.000179142 0)
(0.00283102 0.00299004 0)
(0.00364056 0.00622123 0)
(0.00467011 0.00982579 0)
(-1.67911e-05 -0.000947953 0)
(-0.000158972 -0.00245509 0)
(-0.000381791 -0.00367545 0)
(-0.000662228 -0.00470016 0)
(-0.000977866 -0.00556662 0)
(-0.0013125 -0.00628021 0)
(-0.00165059 -0.00682546 0)
(-0.00197516 -0.00717319 0)
(-0.00226729 -0.00728631 0)
(-0.00250602 -0.00712508 0)
(-0.0026684 -0.00665174 0)
(-0.00272973 -0.00583465 0)
(-0.0026642 -0.00465168 0)
(-0.00244572 -0.0030928 0)
(-0.00204925 -0.00116151 0)
(-0.00145203 0.00112474 0)
(-0.000634461 0.00373471 0)
(0.000422498 0.0066259 0)
(-3.21061e-05 -0.000779904 0)
(-0.00031184 -0.00205428 0)
(-0.000751858 -0.00310872 0)
(-0.00130697 -0.00400672 0)
(-0.00193634 -0.00477594 0)
(-0.0026124 -0.00542151 0)
(-0.00330968 -0.00593237 0)
(-0.0040013 -0.00628609 0)
(-0.00465856 -0.00645358 0)
(-0.00525122 -0.0064034 0)
(-0.00574825 -0.00610587 0)
(-0.00611868 -0.00553649 0)
(-0.00633278 -0.00467874 0)
(-0.00636328 -0.00352598 0)
(-0.00618661 -0.00208234 0)
(-0.00578385 -0.000362726 0)
(-0.00514052 0.00160794 0)
(-0.00424502 0.00379602 0)
(-3.80698e-05 -0.000592252 0)
(-0.000381579 -0.00160884 0)
(-0.000927974 -0.00247651 0)
(-0.00162314 -0.0032267 0)
(-0.00241935 -0.00387637 0)
(-0.00328463 -0.00442993 0)
(-0.00418924 -0.00488019 0)
(-0.00510206 -0.00521084 0)
(-0.00599028 -0.00539973 0)
(-0.00681972 -0.0054224 0)
(-0.00755579 -0.00525531 0)
(-0.00816459 -0.00487874 0)
(-0.00861431 -0.00427912 0)
(-0.00887651 -0.00345055 0)
(-0.00892748 -0.00239552 0)
(-0.00874906 -0.00112486 0)
(-0.00832828 0.000342928 0)
(-0.0076559 0.00198264 0)
(-3.70715e-05 -0.00041144 0)
(-0.00039086 -0.00117594 0)
(-0.000965325 -0.00185493 0)
(-0.00170617 -0.00245033 0)
(-0.00256575 -0.00297017 0)
(-0.00351141 -0.00341843 0)
(-0.00451241 -0.00379136 0)
(-0.00553683 -0.00407804 0)
(-0.00655127 -0.00426256 0)
(-0.00752103 -0.00432656 0)
(-0.00841096 -0.00425186 0)
(-0.00918663 -0.00402274 0)
(-0.00981567 -0.00362785 0)
(-0.0102691 -0.00306142 0)
(-0.0105228 -0.00232396 0)
(-0.0105581 -0.00142226 0)
(-0.0103618 -0.000368927 0)
(-0.00992536 0.000818024 0)
(-3.09763e-05 -0.000260548 0)
(-0.000355798 -0.000806911 0)
(-0.000901036 -0.00131476 0)
(-0.00161748 -0.00176476 0)
(-0.00246131 -0.00215929 0)
(-0.00340114 -0.00250231 0)
(-0.00440722 -0.00279277 0)
(-0.0054492 -0.00302405 0)
(-0.00649553 -0.00318532 0)
(-0.00751349 -0.00326343 0)
(-0.00846971 -0.00324484 0)
(-0.00933126 -0.00311743 0)
(-0.0100668 -0.00287194 0)
(-0.0106481 -0.00250301 0)
(-0.0110507 -0.00200974 0)
(-0.0112558 -0.00139575 0)
(-0.0112495 -0.00066896 0)
(-0.0110229 0.000158548 0)
(-2.17571e-05 -0.000147657 0)
(-0.000293643 -0.000519684 0)
(-0.000773841 -0.000882347 0)
(-0.00142026 -0.00120521 0)
(-0.0021942 -0.00148829 0)
(-0.0030664 -0.00173563 0)
(-0.00400941 -0.00194794 0)
(-0.00499594 -0.00212171 0)
(-0.00599794 -0.00225 0)
(-0.0069863 -0.00232382 0)
(-0.00793115 -0.00233357 0)
(-0.00880259 -0.00227034 0)
(-0.00957185 -0.00212698 0)
(-0.0102123 -0.00189889 0)
(-0.0107009 -0.00158449 0)
(-0.0110186 -0.00118535 0)
(-0.0111513 -0.000705999 0)
(-0.01109 -0.000153986 0)
(-1.12605e-05 -7.15868e-05 0)
(-0.000219722 -0.000312107 0)
(-0.00061707 -0.000557383 0)
(-0.00116803 -0.000775307 0)
(-0.00183895 -0.000965677 0)
(-0.00260322 -0.0011324 0)
(-0.00343662 -0.00127707 0)
(-0.00431583 -0.00139812 0)
(-0.00521724 -0.0014914 0)
(-0.00611634 -0.00155111 0)
(-0.00698775 -0.00157082 0)
(-0.00780575 -0.00154438 0)
(-0.00854514 -0.00146663 0)
(-0.00918226 -0.00133399 0)
(-0.00969595 -0.00114482 0)
(-0.0100684 -0.000899481 0)
(-0.0102859 -0.00060033 0)
(-0.0103394 -0.000251679 0)
(-1.13028e-06 -2.62923e-05 0)
(-0.000146291 -0.000172085 0)
(-0.000456113 -0.000326411 0)
(-0.000900744 -0.000462315 0)
(-0.00145121 -0.000580252 0)
(-0.00208415 -0.000683603 0)
(-0.00277924 -0.000774088 0)
(-0.00351765 -0.000851215 0)
(-0.00428061 -0.000912677 0)
(-0.00504862 -0.000955003 0)
(-0.00580129 -0.000974208 0)
(-0.00651766 -0.000966365 0)
(-0.00717688 -0.000928079 0)
(-0.00775899 -0.000856846 0)
(-0.00824575 -0.000751289 0)
(-0.0086214 -0.000611265 0)
(-0.00887325 -0.000437825 0)
(-0.00899307 -0.00023316 0)
(7.15087e-06 -3.84392e-06 0)
(-8.23373e-05 -8.42911e-05 0)
(-0.00030831 -0.000171498 0)
(-0.000645095 -0.000247131 0)
(-0.00106844 -0.000312196 0)
(-0.00155894 -0.000369193 0)
(-0.00210069 -0.000419489 0)
(-0.00267948 -0.000463053 0)
(-0.0032814 -0.000498738 0)
(-0.00389197 -0.000524679 0)
(-0.00449586 -0.000538662 0)
(-0.00507711 -0.000538455 0)
(-0.00561956 -0.000522073 0)
(-0.00610749 -0.000487986 0)
(-0.00652625 -0.000435253 0)
(-0.00686286 -0.000363598 0)
(-0.00710652 -0.000273401 0)
(-0.00725021 -0.000165591 0)
(1.21748e-05 3.75438e-06 0)
(-3.38446e-05 -3.41075e-05 0)
(-0.00018401 -7.52855e-05 0)
(-0.000416741 -0.000110256 0)
(-0.00071314 -0.000140028 0)
(-0.00105861 -0.000166086 0)
(-0.00144185 -0.000189252 0)
(-0.00185321 -0.000209614 0)
(-0.00228336 -0.000226696 0)
(-0.00272253 -0.000239659 0)
(-0.00316028 -0.000247479 0)
(-0.00358557 -0.000249102 0)
(-0.00398705 -0.000243568 0)
(-0.00435346 -0.000230112 0)
(-0.00467417 -0.000208224 0)
(-0.00493955 -0.000177693 0)
(-0.00514131 -0.000138603 0)
(-0.00527407 -9.1231e-05 0)
(1.25083e-05 3.74047e-06 0)
(-4.24132e-06 -9.40893e-06 0)
(-8.80828e-05 -2.31451e-05 0)
(-0.00022309 -3.44765e-05 0)
(-0.00039686 -4.39904e-05 0)
(-0.00060027 -5.23062e-05 0)
(-0.000826687 -5.97609e-05 0)
(-0.00107065 -6.6418e-05 0)
(-0.00132696 -7.21398e-05 0)
(-0.00159014 -7.66607e-05 0)
(-0.00185426 -7.96479e-05 0)
(-0.00211293 -8.07518e-05 0)
(-0.00235948 -7.96477e-05 0)
(-0.00258723 -7.60679e-05 0)
(-0.00278971 -6.98238e-05 0)
(-0.002961 -6.08185e-05 0)
(-0.00309583 -4.90411e-05 0)
(-0.00319075 -3.45025e-05 0)
(6.75701e-06 1.374e-06 0)
(5.12493e-06 -4.80238e-07 0)
(-2.1407e-05 -1.62531e-06 0)
(-6.58844e-05 -2.51071e-06 0)
(-0.000123663 -3.2241e-06 0)
(-0.000191524 -3.84599e-06 0)
(-0.000267281 -4.41468e-06 0)
(-0.000349214 -4.94062e-06 0)
(-0.000435704 -5.41553e-06 0)
(-0.000525034 -5.81953e-06 0)
(-0.000615304 -6.12619e-06 0)
(-0.000704434 -6.30707e-06 0)
(-0.000790211 -6.33457e-06 0)
(-0.000870373 -6.18503e-06 0)
(-0.000942708 -5.8405e-06 0)
(-0.00100515 -5.29289e-06 0)
(-0.00105577 -4.51849e-06 0)
(-0.00109331 -3.50878e-06 0)
(9.60085e-06 -2.24461e-05 5.31696e-24)
(6.3061e-05 -4.98602e-05 -7.01806e-24)
(0.000146199 -6.41423e-05 0)
(0.000243841 -6.85764e-05 0)
(0.00033833 -6.64996e-05 0)
(0.000417493 -6.01676e-05 5.84713e-24)
(0.000473156 -5.12336e-05 0)
(0.000499753 -4.09335e-05 0)
(0.000493631 -3.01363e-05 0)
(0.000452612 -1.93931e-05 0)
(0.000375579 -9.0269e-06 -7.70981e-25)
(0.000262097 8.12363e-07 0)
(0.000112145 1.00991e-05 0)
(-7.41033e-05 1.88915e-05 0)
(-0.000296433 2.73016e-05 0)
(-0.000554685 3.54697e-05 6.86891e-24)
(-0.000848813 4.35458e-05 0)
(-0.0011789 5.16737e-05 0)
(-0.00154512 5.99801e-05 0)
(-0.00194772 6.85667e-05 0)
(-0.00238695 7.75045e-05 0)
(-0.00286293 8.68299e-05 0)
(-0.00337562 9.65429e-05 0)
(-0.00392467 0.000106606 2.16497e-23)
(-0.00450933 0.000116945 -2.34776e-23)
(-0.00512836 0.000127448 2.52359e-23)
(-0.00577992 0.000137971 2.68971e-23)
(-0.00646148 0.000148337 0)
(-0.00716977 0.000158338 0)
(-0.0079007 0.000167744 -3.09785e-23)
(-0.00864934 0.000176301 -3.19199e-23)
(-0.00940992 0.000183739 0)
(-0.0101758 0.000189781 0)
(-0.0109395 0.000194147 -3.29482e-23)
(-0.0116929 0.000196562 0)
(-0.0124271 0.000196769 0)
(-0.0131327 0.000194536 3.04891e-23)
(-0.0137999 0.000189669 0)
(-0.0144187 0.000182019 2.64883e-23)
(-0.014979 0.000171496 4.74352e-23)
(-0.015471 0.000158072 0)
(-0.015885 0.000141792 0)
(-0.0162123 0.000122775 0)
(-0.0164446 0.000101218 0)
(-0.0165751 7.74098e-05 0)
(-0.0165977 5.16882e-05 -6.94804e-24)
(-0.0165078 2.43822e-05 -1.90123e-23)
(-0.0163024 -4.04698e-06 -3.16612e-23)
(-0.0159803 -3.30822e-05 0)
(-0.0155414 -6.22106e-05 5.81264e-23)
(-0.0149877 -9.09232e-05 0)
(-0.0143225 -0.000118725 -8.50417e-23)
(-0.0135508 -0.000145149 -9.82219e-23)
(-0.0126789 -0.000169775 0)
(-0.0117143 -0.000192239 0)
(-0.0106655 -0.000212243 0)
(-0.00954194 -0.000229561 -1.44861e-22)
(-0.00835354 -0.000244043 0)
(-0.00711069 -0.000255605 0)
(-0.005824 -0.000264232 0)
(-0.00450411 -0.000269962 0)
(-0.00316155 -0.000272871 0)
(-0.0018067 -0.000273055 0)
(-0.000449752 -0.000270571 0)
(0.000899436 -0.00026544 0)
(0.00223138 -0.000257807 1.74598e-22)
(0.00353657 -0.000247913 0)
(0.00480558 -0.000235921 0)
(0.0060291 -0.000221926 -1.54256e-22)
(0.00719781 -0.000206 -1.44669e-22)
(0.00830229 -0.000188208 0)
(0.009333 -0.000168618 1.21988e-22)
(0.0102803 -0.000147321 -1.0919e-22)
(0.0111345 -0.000124444 0)
(0.0118863 -0.000100169 8.15316e-23)
(0.0125263 -7.47392e-05 0)
(0.0130464 -4.84746e-05 0)
(0.013439 -2.17679e-05 -3.7862e-23)
(0.0136983 4.91789e-06 0)
(0.0138201 3.10436e-05 9.77835e-24)
(0.0138025 5.59914e-05 0)
(0.0136464 7.92015e-05 1.55198e-23)
(0.0133554 0.000100147 2.66622e-23)
(0.0129361 0.000118288 3.66056e-23)
(0.0123981 0.000133185 9.04875e-23)
(0.0117542 0.000144516 -1.05016e-22)
(0.0110195 0.000152099 0)
(0.0102114 0.000155904 0)
(0.00934878 0.000156061 0)
(0.00845137 0.000152844 -1.35681e-22)
(0.00753891 0.000146654 -1.37143e-22)
(0.00663039 0.000137986 1.36598e-22)
(0.00574335 0.000127393 0)
(0.00489321 0.000115444 -1.30713e-22)
(0.00409291 0.00010269 -1.26009e-22)
(0.00335253 8.9634e-05 -1.20539e-22)
(0.00267927 7.67119e-05 0)
(0.00207738 6.42887e-05 0)
(0.00154837 5.26621e-05 0)
(0.00109117 4.20731e-05 -9.61318e-23)
(0.000702398 3.27156e-05 0)
(0.000376638 2.47385e-05 0)
(0.000106854 1.82394e-05 8.024e-23)
(-0.000115153 1.32509e-05 0)
(-0.000298173 9.72671e-06 0)
(-0.000450956 7.53444e-06 6.89879e-23)
(-0.000581593 6.46466e-06 0)
(-0.000697005 6.25208e-06 0)
(-0.000802577 6.60477e-06 -6.21963e-23)
(-0.000901998 7.23807e-06 -6.06224e-23)
(-0.000997291 7.90352e-06 0)
(-0.00108903 8.40801e-06 5.80275e-23)
(-0.00117663 8.62171e-06 0)
(-0.00125875 8.4763e-06 -5.57157e-23)
(-0.00133361 7.95648e-06 0)
(-0.00139934 7.088e-06 -5.33151e-23)
(-0.00145419 5.92515e-06 -5.20229e-23)
(-0.00149675 4.53923e-06 0)
(-0.00152605 3.0091e-06 0)
(-0.00154161 1.41658e-06 0)
(-0.00154345 -1.55248e-07 0)
(-0.00153206 -1.66076e-06 0)
(-0.00150837 -3.03421e-06 0)
(-0.00147364 -4.23176e-06 0)
(-0.00142942 -5.22503e-06 -4.03311e-23)
(-0.00137743 -5.99801e-06 3.89767e-23)
(-0.00131945 -6.54649e-06 0)
(-0.00125732 -6.87677e-06 0)
(-0.00119278 -7.00382e-06 0)
(-0.00112745 -6.94921e-06 0)
(-0.00106281 -6.73901e-06 6.72059e-23)
(-0.0010001 -6.40169e-06 0)
(-0.000940375 -5.96634e-06 -6.429e-23)
(-0.000884442 -5.4611e-06 6.30912e-23)
(-0.0008329 -4.912e-06 0)
(-0.000786143 -4.34209e-06 0)
(-0.000744382 -3.771e-06 0)
(-0.000707665 -3.21468e-06 -5.95751e-23)
(-0.00067591 -2.68548e-06 -5.89135e-23)
(-0.000648926 -2.19241e-06 0)
(-0.000626443 -1.74141e-06 -5.77195e-23)
(-0.00060813 -1.33587e-06 -5.7156e-23)
(-0.000593623 -9.76996e-07 5.65974e-23)
(-0.000582535 -6.64326e-07 0)
(-0.000574475 -3.96099e-07 0)
(-0.000569061 -1.69594e-07 5.48551e-23)
(-0.000565921 1.8578e-08 0)
(-0.000564705 1.69524e-07 0)
(-0.000565104 2.76557e-07 0)
(-0.000566816 3.78607e-07 0)
(-0.000569569 4.51236e-07 -5.14007e-23)
(-0.000573134 5.00718e-07 -5.06071e-23)
(-0.000577306 5.32255e-07 0)
(-0.000581903 5.49062e-07 -4.89188e-23)
(-0.000586774 5.53871e-07 0)
(-0.000591788 5.4914e-07 0)
(-0.000596841 5.37091e-07 -4.61571e-23)
(-0.00060185 5.1973e-07 0)
(-0.000606749 4.98869e-07 -4.41865e-23)
(-0.000611495 4.76124e-07 0)
(-0.000616057 4.52903e-07 0)
(-0.000620421 4.30376e-07 -4.10783e-23)
(-0.000624583 4.09417e-07 0)
(-0.000628547 3.90525e-07 -3.89245e-23)
(-0.000632319 3.73727e-07 0)
(-0.000635902 3.58452e-07 0)
(-0.000639284 3.43408e-07 0)
(-0.000642434 3.26446e-07 3.44487e-23)
(-0.000645287 3.04304e-07 0)
(-0.000647733 2.71328e-07 -3.21193e-23)
(-0.000649616 2.21723e-07 0)
(-0.000650688 1.75602e-07 0)
(-0.000650618 9.32372e-08 0)
(-0.000648991 -3.11996e-08 0)
(-0.000645241 -2.03061e-07 0)
(-0.000638614 -4.41281e-07 0)
(-0.000627985 -7.87328e-07 0)
(-0.000611147 -1.6697e-06 4.41311e-23)
(-0.000589843 -1.64758e-06 0)
(-0.000521288 -1.05333e-05 0)
(1.36271e-05 -0.000121384 -1.79014e-23)
(9.6673e-05 -0.000271034 2.38739e-23)
(0.000209248 -0.000341186 0)
(0.000325227 -0.000346968 -1.57943e-23)
(0.000416207 -0.000303408 0)
(0.00046114 -0.000223809 -6.27656e-24)
(0.00044458 -0.000119192 1.24104e-23)
(0.000355068 1.69992e-06 1.07067e-23)
(0.0001843 0.000132228 0)
(-7.35214e-05 0.00026756 6.55992e-24)
(-0.000422263 0.000404362 8.30246e-25)
(-0.000864367 0.000540506 0)
(-0.0014013 0.000674793 0)
(-0.0020339 0.000806704 0)
(-0.00276261 0.000936181 0)
(-0.00358768 0.00106344 -7.38141e-24)
(-0.00450921 0.00118881 0)
(-0.00552718 0.0013126 1.73961e-23)
(-0.0066414 0.00143501 0)
(-0.00785135 0.00155601 0)
(-0.00915611 0.00167532 -2.84374e-23)
(-0.0105541 0.00179237 0)
(-0.0120428 0.00190625 3.60447e-23)
(-0.0136188 0.00201575 -2.31065e-23)
(-0.0152773 0.00211935 2.50261e-23)
(-0.0170121 0.00221524 -2.68652e-23)
(-0.0188152 0.00230141 -2.85949e-23)
(-0.0206768 0.00237564 0)
(-0.0225856 0.00243562 0)
(-0.0245278 0.00247897 3.27968e-23)
(-0.0264881 0.00250331 -2.7754e-23)
(-0.0284492 0.0025064 0)
(-0.0303921 0.00248614 0)
(-0.0322964 0.00244071 3.47058e-23)
(-0.0341402 0.0023686 0)
(-0.0359011 0.00226873 0)
(-0.0375556 0.00214047 -3.20314e-23)
(-0.0390804 0.00198373 0)
(-0.0404524 0.001799 2.59093e-23)
(-0.0416492 0.00158735 -4.97883e-23)
(-0.0426496 0.00135045 0)
(-0.0434341 0.00109057 0)
(-0.0439851 0.000810513 -5.36405e-23)
(-0.0442875 0.000513588 -3.49037e-23)
(-0.0443293 0.000203538 -1.41893e-23)
(-0.044101 -0.000115457 -1.02511e-24)
(-0.0435967 -0.0004392 2.00641e-23)
(-0.0428139 -0.000763173 9.14904e-23)
(-0.0417537 -0.00108285 -8.46704e-23)
(-0.0404203 -0.00139385 -6.16583e-23)
(-0.0388215 -0.00169201 0)
(-0.036968 -0.00197352 9.06413e-23)
(-0.0348734 -0.002235 -9.0963e-23)
(-0.0325538 -0.00247357 0)
(-0.0300275 -0.0026869 0)
(-0.0273145 -0.00287326 0)
(-0.0244361 -0.00303149 1.56913e-22)
(-0.0214149 -0.00316103 0)
(-0.0182735 -0.0032618 -3.36833e-22)
(-0.015035 -0.0033342 0)
(-0.0117226 -0.00337897 -3.65528e-22)
(-0.00835878 -0.00339711 0)
(-0.00496588 -0.00338975 3.81381e-22)
(-0.00156568 -0.00335799 0)
(0.00182036 -0.00330281 -3.80629e-22)
(0.00517166 -0.00322521 1.7728e-22)
(0.00846734 -0.00312623 0)
(0.0116867 -0.00300663 3.43907e-22)
(0.014809 -0.00286693 1.70493e-22)
(0.0178132 -0.00270744 1.59547e-22)
(0.0206775 -0.00252833 0)
(0.0233798 -0.00232979 1.20594e-22)
(0.0258971 -0.00211211 1.19776e-22)
(0.0282058 -0.00187586 0)
(0.0302822 -0.001622 -8.92235e-23)
(0.0321028 -0.00135205 1.37015e-22)
(0.0336446 -0.00106819 0)
(0.0348864 -0.000773354 4.13756e-23)
(0.0358091 -0.000471291 0)
(0.0363973 -0.000166541 -2.73627e-23)
(0.0366398 0.000135596 0)
(0.036531 0.000429561 -5.28748e-23)
(0.0360719 0.000709134 -2.92132e-23)
(0.0352705 0.000968164 3.91642e-23)
(0.0341424 0.00120076 9.46042e-23)
(0.0327112 0.00140161 -1.08076e-22)
(0.0310081 0.0015663 0)
(0.0290713 0.00169163 0)
(0.0269445 0.00177586 0)
(0.0246762 0.0018188 4.36822e-22)
(0.0223171 0.00182189 1.52985e-22)
(0.0199181 0.00178803 -1.5287e-22)
(0.0175288 0.00172142 0)
(0.0151951 0.00162723 -1.29227e-22)
(0.0129574 0.00151125 1.42413e-22)
(0.0108496 0.00137955 1.36662e-22)
(0.00889823 0.00123813 0)
(0.00712175 0.0010927 0)
(0.00553074 0.000948495 0)
(0.00412808 0.000810174 1.10197e-22)
(0.00290959 0.000681719 0)
(0.00186481 0.000566344 -1.8691e-22)
(0.000978124 0.000466364 -2.69934e-22)
(0.000230114 0.000383067 1.68882e-22)
(-0.000400817 0.000316616 0)
(-0.000936756 0.000266051 7.49679e-23)
(-0.00139858 0.000229443 0)
(-0.00180457 0.000204157 1.44688e-22)
(-0.00216943 0.00018718 -6.88435e-23)
(-0.00250379 0.000175473 -6.74175e-23)
(-0.00281419 0.000166294 0)
(-0.00310351 0.000157411 -1.99625e-22)
(-0.00337173 0.000147222 1.29977e-22)
(-0.00361672 0.000134761 6.46604e-23)
(-0.00383518 0.000119639 0)
(-0.00402337 0.000101937 6.19418e-23)
(-0.00417778 8.2079e-05 1.80532e-22)
(-0.00429563 6.07123e-05 0)
(-0.00437511 3.86003e-05 1.14249e-22)
(-0.00441563 1.65374e-05 1.11141e-22)
(-0.00441778 -4.7128e-06 1.07934e-22)
(-0.00438334 -2.45027e-05 0)
(-0.00431509 -4.22701e-05 0)
(-0.00421668 -5.75983e-05 0)
(-0.00409241 -7.0215e-05 -4.79098e-23)
(-0.00394698 -7.99876e-05 -4.56081e-23)
(-0.00378531 -8.6913e-05 0)
(-0.00361231 -9.1101e-05 -8.65835e-23)
(-0.0034327 -9.2754e-05 -8.41425e-23)
(-0.00325088 -9.21446e-05 0)
(-0.00307079 -8.95926e-05 -7.89733e-23)
(-0.00289584 -8.54428e-05 -1.5622e-22)
(-0.00272885 -8.00457e-05 7.56744e-23)
(-0.00257207 -7.37406e-05 7.58754e-23)
(-0.00242716 -6.68426e-05 0)
(-0.00229524 -5.96333e-05 0)
(-0.00217693 -5.23552e-05 0)
(-0.00207241 -4.5209e-05 7.04068e-23)
(-0.00198153 -3.83533e-05 -7.05178e-23)
(-0.00190381 -3.19073e-05 -1.38718e-22)
(-0.00183857 -2.59541e-05 6.83669e-23)
(-0.00178494 -2.05452e-05 -6.82238e-23)
(-0.00174197 -1.57053e-05 -6.7134e-23)
(-0.0017086 -1.14377e-05 0)
(-0.00168381 -7.72865e-06 0)
(-0.00166653 -4.55202e-06 6.53423e-23)
(-0.00165577 -1.87295e-06 0)
(-0.00165056 3.46729e-07 0)
(-0.00165001 2.13991e-06 -1.25963e-22)
(-0.00165331 3.58684e-06 0)
(-0.00165971 4.7036e-06 -6.12351e-23)
(-0.00166855 5.53504e-06 6.03913e-23)
(-0.00167924 6.12293e-06 0)
(-0.00169128 6.50506e-06 -5.83439e-23)
(-0.00170422 6.71614e-06 0)
(-0.0017177 6.78795e-06 0)
(-0.0017314 6.74945e-06 5.52586e-23)
(-0.00174508 6.62691e-06 -1.08136e-22)
(-0.00175855 6.44388e-06 5.29675e-23)
(-0.00177166 6.22117e-06 0)
(-0.00178432 5.97658e-06 0)
(-0.00179647 5.72444e-06 -4.92315e-23)
(-0.00180808 5.47488e-06 0)
(-0.00181914 5.23296e-06 -4.67145e-23)
(-0.00182965 4.99743e-06 0)
(-0.00183958 4.75954e-06 0)
(-0.00184888 4.50171e-06 0)
(-0.00185742 4.19641e-06 -4.1535e-23)
(-0.00186501 3.80511e-06 0)
(-0.0018713 3.27644e-06 3.87768e-23)
(-0.0018758 2.54555e-06 0)
(-0.00187783 1.58422e-06 0)
(-0.00187645 2.54166e-07 -6.89191e-23)
(-0.00187048 -1.54342e-06 6.59606e-23)
(-0.00185833 -3.94223e-06 0)
(-0.00183799 -7.16511e-06 0)
(-0.0018066 -1.16552e-05 0)
(-0.00175935 -1.85667e-05 -1.61333e-22)
(-0.0016982 -2.94052e-05 0)
(-0.00155813 -5.60268e-05 9.5036e-23)
(1.06203e-05 -0.000219965 -2.53428e-24)
(6.2943e-05 -0.000460591 -3.57779e-23)
(0.000111215 -0.000537955 0)
(0.000127334 -0.000486302 3.41868e-23)
(8.30123e-05 -0.000335269 0)
(-4.33467e-05 -0.000110014 0)
(-0.000268297 0.000168619 2.46912e-24)
(-0.000604666 0.000483814 -1.06968e-23)
(-0.0010623 0.000822405 -1.14181e-23)
(-0.0016486 0.00117446 -6.5374e-24)
(-0.00236896 0.00153277 0)
(-0.00322729 0.00189239 0)
(-0.00422632 0.00225012 2.31924e-24)
(-0.00536789 0.00260409 -7.08188e-25)
(-0.00665313 0.0029533 6.34821e-24)
(-0.0080826 0.00329728 0)
(-0.00965627 0.00363575 1.84658e-23)
(-0.0113735 0.00396834 -1.71806e-23)
(-0.0132328 0.00429438 0)
(-0.0152318 0.0046127 3.85229e-23)
(-0.017367 0.00492156 2.79579e-23)
(-0.0196334 0.00521849 -5.28675e-23)
(-0.0220244 0.00550037 -3.53214e-23)
(-0.0245314 0.00576336 0)
(-0.0271436 0.00600302 7.49527e-23)
(-0.0298479 0.00621438 8.21893e-23)
(-0.0326286 0.0063921 0)
(-0.0354675 0.00653057 9.59089e-23)
(-0.0383439 0.00662415 0)
(-0.0412343 0.0066673 1.07825e-22)
(-0.0441131 0.00665483 5.95085e-23)
(-0.0469527 0.00658203 0)
(-0.0497235 0.00644493 0)
(-0.0523949 0.00624042 0)
(-0.0549351 0.00596645 0)
(-0.0573123 0.00562216 0)
(-0.0594948 0.00520795 0)
(-0.0614517 0.00472558 1.13711e-22)
(-0.0631536 0.0041782 -1.58905e-22)
(-0.064573 0.00357033 0)
(-0.065685 0.00290776 0)
(-0.0664677 0.0021975 0)
(-0.0669024 0.00144763 -8.8198e-24)
(-0.0669745 0.00066705 3.36666e-23)
(-0.0666729 -0.000134552 3.82264e-23)
(-0.0659914 -0.000947015 4.39338e-24)
(-0.0649278 -0.00175994 1.88756e-23)
(-0.0634842 -0.002563 -5.60373e-23)
(-0.0616666 -0.00334617 1.37783e-23)
(-0.0594854 -0.00409991 -9.41337e-23)
(-0.0569545 -0.00481548 0)
(-0.0540913 -0.00548501 -1.47786e-22)
(-0.0509163 -0.00610175 1.54658e-23)
(-0.0474523 -0.00666013 0)
(-0.0437247 -0.00715587 0)
(-0.0397601 -0.00758596 2.51033e-22)
(-0.0355866 -0.00794866 0)
(-0.0312329 -0.00824342 0)
(-0.026728 -0.00847074 -2.96787e-22)
(-0.022101 -0.00863202 -6.59134e-22)
(-0.0173803 -0.00872934 3.59709e-22)
(-0.0125939 -0.00876525 0)
(-0.00776935 -0.00874253 -3.77004e-22)
(-0.00293315 -0.00866391 0)
(0.00188829 -0.00853189 -3.44222e-22)
(0.00666997 -0.00834859 -3.68298e-22)
(0.0113861 -0.00811573 6.78657e-22)
(0.016011 -0.00783457 3.08089e-22)
(0.0205185 -0.00750584 0)
(0.0248819 -0.00712972 -5.68521e-22)
(0.0290732 -0.00670608 0)
(0.0330631 -0.00623469 -7.20906e-22)
(0.0368211 -0.00571547 -4.17692e-22)
(0.0403149 -0.00514885 -3.61424e-22)
(0.0435113 -0.00453609 3.03415e-22)
(0.0463764 -0.00387967 -3.78059e-22)
(0.0488759 -0.00318353 0)