# Forces      
# CofR        : (0.000000e+00 0.000000e+00 2.000000e-02)
# Time        forces(pressure viscous porous)	moments(pressure viscous porous)
500           	((-9.115875e+19 -5.550527e+19 -2.662516e+19) (-1.480108e+07 -8.714902e+06 -2.120105e+07) (0.000000e+00 0.000000e+00 0.000000e+00)) ((9.844748e+20 -1.536899e+21 -5.249519e+19) (3.146908e+08 -4.140774e+08 -2.610480e+07) (0.000000e+00 0.000000e+00 0.000000e+00))
510           	((-2.380740e+20 -1.754410e+20 -9.170608e+19) (-2.272005e+07 -1.696252e+07 -4.595221e+07) (0.000000e+00 0.000000e+00 0.000000e+00)) ((3.011080e+21 -4.132878e+21 -1.308440e+20) (4.992558e+08 -6.769539e+08 -3.834343e+07) (0.000000e+00 0.000000e+00 0.000000e+00))
520           	((-8.897234e+20 -4.354841e+20 -2.586251e+20) (-4.524683e+07 -2.666077e+07 -7.279109e+07) (0.000000e+00 0.000000e+00 0.000000e+00)) ((7.725085e+21 -1.500273e+22 -4.999670e+19) (6.874524e+08 -1.278624e+09 -1.989908e+06) (0.000000e+00 0.000000e+00 0.000000e+00))
530           	((-2.017481e+21 -1.075986e+21 -5.976834e+20) (-7.556436e+07 -4.114767e+07 -1.285740e+08) (0.000000e+00 0.000000e+00 0.000000e+00)) ((1.884878e+22 -3.468766e+22 -5.076013e+20) (1.160173e+09 -2.042015e+09 -5.509383e+07) (0.000000e+00 0.000000e+00 0.000000e+00))
540           	((-5.224979e+21 -3.528743e+21 -1.438329e+21) (-1.078195e+08 -6.883231e+07 -1.656594e+08) (0.000000e+00 0.000000e+00 0.000000e+00)) ((6.000380e+22 -8.787577e+22 -1.226389e+20) (2.092558e+09 -3.013775e+09 -6.703655e+07) (0.000000e+00 0.000000e+00 0.000000e+00))
550           	((-1.542918e+22 -9.189315e+21 -4.596309e+21) (-1.838037e+08 -1.299316e+08 -2.906461e+08) (0.000000e+00 0.000000e+00 0.000000e+00)) ((1.576564e+23 -2.587648e+23 -8.434940e+20) (3.682184e+09 -5.061562e+09 -4.870185e+07) (0.000000e+00 0.000000e+00 0.000000e+00))
560           	((-3.782636e+22 -2.975014e+22 -1.487250e+22) (-2.987061e+08 -2.298877e+08 -5.742144e+08) (0.000000e+00 0.000000e+00 0.000000e+00)) ((5.116769e+23 -6.434055e+23 -5.440564e+21) (6.432371e+09 -7.887717e+09 -2.579524e+08) (0.000000e+00 0.000000e+00 0.000000e+00))
570           	((-1.102732e+23 -6.901589e+22 -4.191159e+22) (-4.766764e+08 -3.561977e+08 -1.002326e+09) (0.000000e+00 0.000000e+00 0.000000e+00)) ((1.222932e+24 -1.901789e+24 -2.007715e+22) (1.102113e+10 -1.333153e+10 -3.881299e+08) (0.000000e+00 0.000000e+00 0.000000e+00))
580           	((-3.284991e+23 -2.158472e+23 -1.229006e+23) (-8.358522e+08 -5.560637e+08 -1.763373e+09) (0.000000e+00 0.000000e+00 0.000000e+00)) ((3.849250e+24 -5.680825e+24 6.680419e+21) (2.048721e+10 -2.515907e+10 -1.161984e+09) (0.000000e+00 0.000000e+00 0.000000e+00))
590           	((-8.372710e+23 -5.776488e+23 -2.754257e+23) (-1.374778e+09 -9.462776e+08 -2.552604e+09) (0.000000e+00 0.000000e+00 0.000000e+00)) ((9.905246e+24 -1.421322e+25 -6.885026e+23) (3.382605e+10 -3.886543e+10 -1.700613e+09) (0.000000e+00 0.000000e+00 0.000000e+00))
600           	((-2.003433e+24 -9.607072e+23 -6.753686e+23) (-2.248128e+09 -1.365041e+09 -4.240649e+09) (0.000000e+00 0.000000e+00 0.000000e+00)) ((1.716730e+25 -3.351592e+25 -1.155475e+24) (4.226881e+10 -6.117482e+10 -1.036088e+09) (0.000000e+00 0.000000e+00 0.000000e+00))
610           	((-3.978103e+24 -3.004354e+24 -1.395454e+24) (-3.286958e+09 -2.281089e+09 -6.296087e+09) (0.000000e+00 0.000000e+00 0.000000e+00)) ((5.231778e+25 -6.705943e+25 -1.814316e+24) (6.552981e+10 -8.414677e+10 -2.065498e+09) (0.000000e+00 0.000000e+00 0.000000e+00))
620           	((-1.085608e+25 -4.408869e+24 -3.660240e+24) (-4.888034e+09 -2.839523e+09 -9.511210e+09) (0.000000e+00 0.000000e+00 0.000000e+00)) ((8.130032e+25 -1.818274e+26 -4.351439e+24) (8.493498e+10 -1.317678e+11 3.350458e+08) (0.000000e+00 0.000000e+00 0.000000e+00))
630           	((-3.140278e+25 -1.660617e+25 -1.239921e+25) (-8.209098e+09 -4.054324e+09 -1.865848e+10) (0.000000e+00 0.000000e+00 0.000000e+00)) ((2.907411e+26 -5.303206e+26 -1.213369e+25) (1.287568e+11 -2.294371e+11 -4.527994e+09) (0.000000e+00 0.000000e+00 0.000000e+00))
640           	((-8.844974e+25 -3.728984e+25 -2.391177e+25) (-1.471002e+10 -6.523220e+09 -2.693148e+10) (0.000000e+00 0.000000e+00 0.000000e+00)) ((6.527072e+26 -1.446490e+27 1.190046e+25) (2.056142e+11 -3.786629e+11 -9.572575e+09) (0.000000e+00 0.000000e+00 0.000000e+00))
650           	((-2.014224e+26 -1.198106e+26 -5.555416e+25) (-2.297852e+10 -1.244002e+10 -3.905668e+10) (0.000000e+00 0.000000e+00 0.000000e+00)) ((2.008408e+27 -3.283020e+27 2.363934e+25) (3.449301e+11 -5.565108e+11 -1.206449e+10) (0.000000e+00 0.000000e+00 0.000000e+00))
660           	((-4.799432e+26 -2.215289e+26 -1.750609e+26) (-3.353887e+10 -1.594114e+10 -5.727710e+10) (0.000000e+00 0.000000e+00 0.000000e+00)) ((3.701396e+27 -8.004247e+27 -6.420815e+25) (4.145377e+11 -8.800737e+11 -1.094832e+10) (0.000000e+00 0.000000e+00 0.000000e+00))
670           	((-1.860070e+27 -1.109028e+27 -5.843062e+26) (-6.357415e+10 -3.091485e+10 -1.155582e+11) (0.000000e+00 0.000000e+00 0.000000e+00)) ((1.834709e+28 -2.986185e+28 2.277237e+26) (8.912447e+11 -1.552267e+12 -5.026548e+10) (0.000000e+00 0.000000e+00 0.000000e+00))
680           	((-5.246864e+27 -3.771998e+27 -2.201076e+27) (-1.153290e+11 -6.594647e+10 -2.179416e+11) (0.000000e+00 0.000000e+00 0.000000e+00)) ((6.518421e+28 -8.996240e+28 2.490106e+27) (2.337946e+12 -2.834396e+12 -1.897829e+11) (0.000000e+00 0.000000e+00 0.000000e+00))
690           	((-2.205213e+28 -1.424704e+28 -7.288650e+27) (-2.055750e+11 -1.251112e+11 -3.999369e+11) (0.000000e+00 0.000000e+00 0.000000e+00)) ((2.436618e+29 -3.658360e+29 -4.602487e+27) (4.769708e+12 -5.653687e+12 -3.258580e+11) (0.000000e+00 0.000000e+00 0.000000e+00))
700           	((-5.056392e+28 -3.427478e+28 -1.917625e+28) (-3.225535e+11 -2.204100e+11 -6.867426e+11) (0.000000e+00 0.000000e+00 0.000000e+00)) ((5.791057e+29 -8.353407e+29 -2.222885e+28) (7.426562e+12 -9.135795e+12 -4.231968e+11) (0.000000e+00 0.000000e+00 0.000000e+00))
710           	((-1.047583e+29 -1.100692e+29 -4.798018e+28) (-4.919400e+11 -4.112248e+11 -1.098262e+12) (0.000000e+00 0.000000e+00 0.000000e+00)) ((1.876038e+30 -1.762355e+30 -1.164766e+29) (1.257236e+13 -1.187522e+13 -4.353959e+11) (0.000000e+00 0.000000e+00 0.000000e+00))
720           	((-3.575009e+29 -2.622017e+29 -1.573143e+29) (-8.557418e+11 -6.368924e+11 -2.206667e+12) (0.000000e+00 0.000000e+00 0.000000e+00)) ((4.713227e+30 -5.961757e+30 -2.789536e+29) (2.003018e+13 -2.025492e+13 -4.883054e+11) (0.000000e+00 0.000000e+00 0.000000e+00))
730           	((-6.944713e+29 -3.619026e+29 -2.135672e+29) (-1.242770e+12 -8.163869e+11 -2.821643e+12) (0.000000e+00 0.000000e+00 0.000000e+00)) ((6.222035e+30 -1.144607e+31 -5.405009e+29) (2.151853e+13 -2.526312e+13 -5.438905e+11) (0.000000e+00 0.000000e+00 0.000000e+00))
740           	((-3.115205e+30 -2.984504e+30 -8.543795e+29) (-2.797035e+12 -1.887980e+12 -3.767701e+12) (0.000000e+00 0.000000e+00 0.000000e+00)) ((4.815089e+31 -4.909486e+31 4.000380e+30) (4.613429e+13 -5.063769e+13 -3.380828e+12) (0.000000e+00 0.000000e+00 0.000000e+00))
750           	((-1.260752e+31 -1.106075e+31 -2.767344e+30) (-5.327645e+12 -4.036158e+12 -6.114884e+12) (0.000000e+00 0.000000e+00 0.000000e+00)) ((1.937326e+32 -2.089674e+32 -9.024156e+30) (1.473404e+14 -1.244167e+14 -1.267107e+13) (0.000000e+00 0.000000e+00 0.000000e+00))
760           	((-3.704574e+31 -3.153092e+31 -1.074470e+31) (-7.936640e+12 -5.522001e+12 -7.189524e+12) (0.000000e+00 0.000000e+00 0.000000e+00)) ((5.635047e+32 -6.400743e+32 -4.233876e+31) (2.650843e+14 -2.598925e+14 -2.337133e+13) (0.000000e+00 0.000000e+00 0.000000e+00))
770           	((-1.001398e+32 -7.571644e+31 -5.770015e+31) (-1.327661e+13 -9.997474e+12 -3.334498e+13) (0.000000e+00 0.000000e+00 0.000000e+00)) ((1.306673e+33 -1.723027e+33 -5.294813e+31) (3.878173e+14 -4.543502e+14 -2.420040e+13) (0.000000e+00 0.000000e+00 0.000000e+00))
780           	((-2.568385e+32 -1.797556e+32 -1.194140e+32) (-2.283321e+13 -1.708194e+13 -6.434201e+13) (0.000000e+00 0.000000e+00 0.000000e+00)) ((3.053431e+33 -4.299877e+33 7.270690e+31) (4.400010e+14 -6.186378e+14 -1.904465e+13) (0.000000e+00 0.000000e+00 0.000000e+00))
790           	((-6.688996e+32 -4.393942e+32 -2.979390e+32) (-3.894223e+13 -2.876709e+13 -1.020266e+14) (0.000000e+00 0.000000e+00 0.000000e+00)) ((7.720791e+33 -1.124875e+34 -6.181901e+32) (6.936506e+14 -9.148872e+14 -5.233045e+13) (0.000000e+00 0.000000e+00 0.000000e+00))
800           	((-2.296943e+33 -1.401189e+33 -8.704627e+32) (-6.992497e+13 -4.596121e+13 -1.713637e+14) (0.000000e+00 0.000000e+00 0.000000e+00)) ((2.433706e+34 -3.845743e+34 -2.151605e+32) (1.161572e+15 -1.678670e+15 -4.135769e+13) (0.000000e+00 0.000000e+00 0.000000e+00))
810           	((-7.806187e+33 -5.381949e+33 -3.128537e+33) (-1.303232e+14 -8.243724e+13 -2.856895e+14) (0.000000e+00 0.000000e+00 0.000000e+00)) ((9.243872e+34 -1.313310e+35 4.406247e+32) (2.281688e+15 -3.350109e+15 -7.295400e+13) (0.000000e+00 0.000000e+00 0.000000e+00))
820           	((-2.005060e+34 -1.639885e+34 -7.586466e+33) (-2.089536e+14 -1.585255e+14 -4.491752e+14) (0.000000e+00 0.000000e+00 0.000000e+00)) ((2.834769e+35 -3.423427e+35 -5.116600e+33) (4.885990e+15 -5.694656e+15 -3.374745e+14) (0.000000e+00 0.000000e+00 0.000000e+00))
830           	((-6.517676e+34 -3.689841e+34 -2.967316e+34) (-3.644879e+14 -2.352080e+14 -8.155723e+14) (0.000000e+00 0.000000e+00 0.000000e+00)) ((6.584953e+35 -1.110758e+36 -1.877141e+34) (8.073324e+15 -1.055791e+16 -2.326538e+14) (0.000000e+00 0.000000e+00 0.000000e+00))
840           	((-1.501998e+35 -9.557572e+34 -7.632098e+34) (-5.387970e+14 -3.522360e+14 -1.571634e+15) (0.000000e+00 0.000000e+00 0.000000e+00)) ((1.673415e+36 -2.562438e+36 -1.013148e+34) (1.094891e+16 -1.532918e+16 -3.561352e+14) (0.000000e+00 0.000000e+00 0.000000e+00))
850           	((-3.402868e+35 -2.053126e+35 -1.582924e+35) (-8.253827e+14 -5.217822e+14 -2.596105e+15) (0.000000e+00 0.000000e+00 0.000000e+00)) ((3.658605e+36 -5.962994e+36 -9.299626e+34) (1.713359e+16 -2.212559e+16 -5.712263e+14) (0.000000e+00 0.000000e+00 0.000000e+00))
860           	((-1.181173e+36 -4.857831e+35 -5.553748e+35) (-1.502767e+15 -7.949141e+14 -4.253761e+15) (0.000000e+00 0.000000e+00 0.000000e+00)) ((8.539777e+36 -2.000300e+37 -2.901868e+35) (2.760647e+16 -4.072524e+16 -1.885412e+15) (0.000000e+00 0.000000e+00 0.000000e+00))
870           	((-2.989187e+36 -1.709562e+36 -1.627572e+36) (-2.478685e+15 -1.296445e+15 -7.903387e+15) (0.000000e+00 0.000000e+00 0.000000e+00)) ((2.960228e+37 -4.965192e+37 -1.422112e+36) (4.790385e+16 -6.919738e+16 -2.313680e+15) (0.000000e+00 0.000000e+00 0.000000e+00))
880           	((-9.399002e+36 -7.589385e+36 -4.376936e+36) (-4.131341e+15 -2.796754e+15 -1.325245e+16) (0.000000e+00 0.000000e+00 0.000000e+00)) ((1.269756e+38 -1.550841e+38 -7.180156e+35) (9.438282e+16 -1.103306e+17 -3.980606e+15) (0.000000e+00 0.000000e+00 0.000000e+00))
890           	((-2.406697e+37 -1.621336e+37 -1.109895e+37) (-7.009849e+15 -5.440029e+15 -2.075902e+16) (0.000000e+00 0.000000e+00 0.000000e+00)) ((3.005972e+38 -4.167337e+38 -2.586408e+37) (1.752207e+17 -1.863711e+17 -3.775878e+15) (0.000000e+00 0.000000e+00 0.000000e+00))
900           	((-7.631190e+37 -4.840933e+37 -1.900947e+37) (-1.256571e+16 -8.020344e+15 -2.712967e+16) (0.000000e+00 0.000000e+00 0.000000e+00)) ((8.400027e+38 -1.250359e+39 2.456857e+37) (2.773885e+17 -3.325870e+17 -2.803741e+15) (0.000000e+00 0.000000e+00 0.000000e+00))
910           	((-2.399886e+38 -1.799644e+38 -1.179098e+38) (-2.246038e+16 -1.457407e+16 -4.820831e+16) (0.000000e+00 0.000000e+00 0.000000e+00)) ((3.093077e+39 -4.171347e+39 1.377311e+38) (5.259559e+17 -6.464427e+17 -1.937537e+16) (0.000000e+00 0.000000e+00 0.000000e+00))
920           	((-7.750064e+38 -5.448629e+38 -4.453551e+38) (-3.770976e+16 -2.799064e+16 -1.164515e+17) (0.000000e+00 0.000000e+00 0.000000e+00)) ((9.285816e+39 -1.316984e+40 3.494828e+38) (9.064040e+17 -1.155332e+18 4.036993e+13) (0.000000e+00 0.000000e+00 0.000000e+00))
930           	((-1.872166e+39 -1.139320e+39 -8.148142e+38) (-6.379630e+16 -4.214261e+16 -1.829100e+17) (0.000000e+00 0.000000e+00 0.000000e+00)) ((2.028753e+40 -3.147262e+40 -2.165914e+38) (1.234309e+18 -1.806857e+18 3.420718e+16) (0.000000e+00 0.000000e+00 0.000000e+00))
940           	((-6.775446e+39 -3.855055e+39 -2.974195e+39) (-1.205779e+17 -7.072005e+16 -3.160828e+17) (0.000000e+00 0.000000e+00 0.000000e+00)) ((6.601863e+40 -1.136336e+41 3.980293e+39) (1.844919e+18 -3.018154e+18 3.016590e+16) (0.000000e+00 0.000000e+00 0.000000e+00))
950           	((-1.910264e+40 -1.409473e+40 -7.250828e+39) (-2.060529e+17 -1.303969e+17 -5.170892e+17) (0.000000e+00 0.000000e+00 0.000000e+00)) ((2.469111e+41 -3.195783e+41 -1.482287e+40) (3.694491e+18 -4.835964e+18 -2.137862e+17) (0.000000e+00 0.000000e+00 0.000000e+00))
960           	((-5.504760e+40 -3.871655e+40 -2.160492e+40) (-3.312068e+17 -2.398917e+17 -7.917286e+17) (0.000000e+00 0.000000e+00 0.000000e+00)) ((6.664445e+41 -9.198276e+41 -8.947055e+39) (7.103994e+18 -8.604692e+18 -1.461274e+17) (0.000000e+00 0.000000e+00 0.000000e+00))
970           	((-1.737927e+41 -1.033230e+41 -5.922752e+40) (-5.963642e+17 -3.958855e+17 -1.289828e+18) (0.000000e+00 0.000000e+00 0.000000e+00)) ((1.745341e+42 -2.875535e+42 -5.083519e+40) (1.167141e+19 -1.420304e+19 -2.777450e+17) (0.000000e+00 0.000000e+00 0.000000e+00))
980           	((-5.999711e+41 -4.463412e+41 -2.327286e+41) (-1.106624e+18 -7.373236e+17 -2.409860e+18) (0.000000e+00 0.000000e+00 0.000000e+00)) ((7.528507e+42 -1.006438e+43 1.744091e+41) (2.313485e+19 -2.792585e+19 -9.965518e+17) (0.000000e+00 0.000000e+00 0.000000e+00))
990           	((-1.697270e+42 -9.399935e+41 -6.626216e+41) (-1.857661e+18 -1.247839e+18 -4.429371e+18) (0.000000e+00 0.000000e+00 0.000000e+00)) ((1.689749e+43 -2.870368e+43 -3.810741e+41) (4.250445e+19 -5.021967e+19 -1.406358e+18) (0.000000e+00 0.000000e+00 0.000000e+00))
1000          	((-5.170882e+42 -3.132095e+42 -1.401556e+42) (-3.401137e+18 -2.059606e+18 -6.456594e+18) (0.000000e+00 0.000000e+00 0.000000e+00)) ((5.211238e+43 -8.376508e+43 6.466596e+41) (6.300218e+19 -8.473486e+19 -5.775228e+17) (0.000000e+00 0.000000e+00 0.000000e+00))
1010          	((-1.326639e+43 -6.420367e+42 -4.213969e+42) (-5.966298e+18 -3.463424e+18 -1.014373e+19) (0.000000e+00 0.000000e+00 0.000000e+00)) ((1.099303e+44 -2.182296e+44 -2.885146e+42) (8.776583e+19 -1.388701e+20 -1.698308e+18) (0.000000e+00 0.000000e+00 0.000000e+00))
1020          	((-4.360884e+43 -2.899249e+43 -1.342074e+43) (-1.104048e+19 -6.439769e+18 -1.780898e+19) (0.000000e+00 0.000000e+00 0.000000e+00)) ((4.709851e+44 -7.233559e+44 1.291910e+43) (1.596094e+20 -2.435453e+20 -7.916668e+18) (0.000000e+00 0.000000e+00 0.000000e+00))
1030          	((-9.567093e+43 -9.024960e+43 -4.071169e+43) (-1.556222e+19 -1.231112e+19 -3.147709e+19) (0.000000e+00 0.000000e+00 0.000000e+00)) ((1.497185e+45 -1.598707e+45 -5.632929e+43) (3.367793e+20 -3.607188e+20 -2.768371e+19) (0.000000e+00 0.000000e+00 0.000000e+00))
1040          	((-3.152974e+44 -2.121674e+44 -1.302426e+44) (-2.402787e+19 -1.932801e+19 -6.005931e+19) (0.000000e+00 0.000000e+00 0.000000e+00)) ((3.631925e+45 -5.283993e+45 9.420503e+43) (5.799119e+20 -6.434028e+20 -2.322477e+19) (0.000000e+00 0.000000e+00 0.000000e+00))
1050          	((-8.949598e+44 -5.178224e+44 -2.144331e+44) (-4.768513e+19 -2.816478e+19 -6.916697e+19) (0.000000e+00 0.000000e+00 0.000000e+00)) ((9.062155e+45 -1.485177e+46 -1.501209e+44) (8.709254e+20 -1.172110e+21 -4.925257e+19) (0.000000e+00 0.000000e+00 0.000000e+00))
1060          	((-3.165337e+45 -1.957405e+45 -1.150180e+45) (-8.563157e+19 -5.158570e+19 -1.486929e+20) (0.000000e+00 0.000000e+00 0.000000e+00)) ((3.375494e+46 -5.237411e+46 1.089117e+45) (1.590267e+21 -2.238344e+21 -5.088068e+19) (0.000000e+00 0.000000e+00 0.000000e+00))
1070          	((-1.070398e+46 -6.717822e+45 -3.472635e+45) (-1.595926e+20 -8.919410e+19 -2.941616e+20) (0.000000e+00 0.000000e+00 0.000000e+00)) ((1.158177e+47 -1.778149e+47 1.010228e+45) (2.829550e+21 -3.926070e+21 -4.094451e+19) (0.000000e+00 0.000000e+00 0.000000e+00))
1080          	((-2.742613e+46 -1.871292e+46 -8.275219e+45) (-2.643865e+20 -1.656110e+20 -4.963354e+20) (0.000000e+00 0.000000e+00 0.000000e+00)) ((3.184232e+47 -4.610939e+47 7.724170e+45) (4.991932e+21 -6.681941e+21 -1.100637e+20) (0.000000e+00 0.000000e+00 0.000000e+00))
1090          	((-5.176388e+46 -3.069319e+46 -2.131721e+46) (-3.650094e+20 -2.452178e+20 -7.626953e+20) (0.000000e+00 0.000000e+00 0.000000e+00)) ((5.449046e+47 -8.982256e+47 -3.338709e+46) (6.909854e+21 -9.603017e+21 -1.856388e+19) (0.000000e+00 0.000000e+00 0.000000e+00))
1100          	((-1.131436e+47 -5.799158e+46 -3.753450e+46) (-5.044686e+20 -3.217256e+20 -1.143459e+21) (0.000000e+00 0.000000e+00 0.000000e+00)) ((1.047125e+48 -1.817800e+48 -2.372410e+47) (8.268116e+21 -1.170651e+22 -1.307416e+20) (0.000000e+00 0.000000e+00 0.000000e+00))
1110          	((-3.972973e+47 -3.275137e+47 -1.320507e+47) (-9.132137e+20 -6.712249e+20 -1.798487e+21) (0.000000e+00 0.000000e+00 0.000000e+00)) ((5.330796e+48 -6.523386e+48 1.046210e+47) (1.756301e+22 -2.008092e+22 -7.515127e+20) (0.000000e+00 0.000000e+00 0.000000e+00))
1120          	((-1.126148e+48 -6.076914e+47 -3.900602e+47) (-1.532641e+21 -1.087329e+21 -2.929035e+21) (0.000000e+00 0.000000e+00 0.000000e+00)) ((1.068061e+49 -1.904967e+49 6.134329e+47) (3.113248e+22 -4.272305e+22 -4.285862e+19) (0.000000e+00 0.000000e+00 0.000000e+00))
1130          	((-2.343359e+48 -1.672758e+48 -1.085802e+48) (-2.312840e+21 -1.638811e+21 -5.562841e+21) (0.000000e+00 0.000000e+00 0.000000e+00)) ((2.878363e+49 -3.951735e+49 1.268063e+48) (4.930957e+22 -6.416223e+22 -8.488710e+20) (0.000000e+00 0.000000e+00 0.000000e+00))
1140          	((-7.637069e+48 -2.965217e+48 -2.259753e+48) (-4.176318e+21 -2.301037e+21 -7.743205e+21) (0.000000e+00 0.000000e+00 0.000000e+00)) ((5.234920e+49 -1.252287e+50 6.379829e+47) (6.029091e+22 -1.008597e+23 3.961892e+21) (0.000000e+00 0.000000e+00 0.000000e+00))
1150          	((-1.909856e+49 -8.771857e+48 6.160261e+47) (-7.585425e+21 -4.052766e+21 -6.572643e+21) (0.000000e+00 0.000000e+00 0.000000e+00)) ((1.350706e+50 -3.006099e+50 1.690712e+49) (8.545261e+22 -1.811500e+23 2.469805e+21) (0.000000e+00 0.000000e+00 0.000000e+00))
1160          	((-6.751673e+49 -4.609225e+49 -2.518081e+49) (-1.386685e+22 -8.046841e+21 -1.485192e+22) (0.000000e+00 0.000000e+00 0.000000e+00)) ((7.202190e+50 -1.111002e+51 9.126697e+49) (1.713606e+23 -3.943121e+23 2.121159e+22) (0.000000e+00 0.000000e+00 0.000000e+00))
1170          	((-1.600920e+50 -1.463287e+50 -5.517126e+49) (-2.167574e+22 -1.684671e+22 -3.121417e+22) (0.000000e+00 0.000000e+00 0.000000e+00)) ((2.401195e+51 -2.740534e+51 8.192170e+49) (4.458373e+23 -5.383532e+23 -1.888452e+22) (0.000000e+00 0.000000e+00 0.000000e+00))
1180          	((-6.378577e+50 -4.571685e+50 -1.874650e+50) (-3.788027e+22 -2.865670e+22 -5.295504e+22) (0.000000e+00 0.000000e+00 0.000000e+00)) ((7.492385e+51 -1.071858e+52 -3.578089e+50) (8.001291e+23 -1.017605e+24 -2.375969e+22) (0.000000e+00 0.000000e+00 0.000000e+00))
1190          	((-1.665424e+51 -1.269465e+51 -7.675682e+50) (-6.799715e+22 -4.741238e+22 -1.279206e+23) (0.000000e+00 0.000000e+00 0.000000e+00)) ((2.149183e+52 -2.897253e+52 2.243872e+51) (1.322217e+24 -1.897160e+24 1.736892e+22) (0.000000e+00 0.000000e+00 0.000000e+00))
1200          	((-4.460200e+51 -3.423051e+51 -1.412820e+51) (-1.080411e+23 -7.619366e+22 -2.096977e+23) (0.000000e+00 0.000000e+00 0.000000e+00)) ((5.895935e+52 -7.488493e+52 4.453865e+50) (2.050039e+24 -2.779875e+24 6.936583e+22) (0.000000e+00 0.000000e+00 0.000000e+00))
1210          	((-1.458634e+52 -1.076537e+52 -4.737947e+51) (-1.772717e+23 -1.262125e+23 -3.090530e+23) (0.000000e+00 0.000000e+00 0.000000e+00)) ((1.911035e+53 -2.503172e+53 -6.306198e+51) (4.054677e+24 -4.402842e+24 -1.549138e+23) (0.000000e+00 0.000000e+00 0.000000e+00))
1220          	((-4.385712e+52 -2.923971e+52 -1.223546e+52) (-3.192816e+23 -2.063964e+23 -5.607569e+23) (0.000000e+00 0.000000e+00 0.000000e+00)) ((4.980125e+53 -7.407985e+53 9.295539e+51) (6.841867e+24 -8.848491e+24 -4.004743e+23) (0.000000e+00 0.000000e+00 0.000000e+00))
1230          	((-1.080641e+53 -7.955660e+52 -3.413867e+52) (-4.929444e+23 -3.628771e+23 -7.235478e+23) (0.000000e+00 0.000000e+00 0.000000e+00)) ((1.378983e+54 -1.883384e+54 6.743080e+52) (1.193481e+25 -1.499156e+25 -5.326921e+23) (0.000000e+00 0.000000e+00 0.000000e+00))
1240          	((-2.515457e+53 -1.757935e+53 -1.046374e+53) (-7.635427e+23 -5.237558e+23 -1.573164e+24) (0.000000e+00 0.000000e+00 0.000000e+00)) ((2.819492e+54 -4.168866e+54 4.302309e+53) (1.527451e+25 -2.034776e+25 -3.486101e+23) (0.000000e+00 0.000000e+00 0.000000e+00))
1250          	((-6.995403e+53 -3.491377e+53 -1.385508e+53) (-1.254061e+24 -8.063517e+23 -2.144791e+24) (0.000000e+00 0.000000e+00 0.000000e+00)) ((5.666441e+54 -1.144682e+55 3.791859e+53) (1.794814e+25 -2.582651e+25 -9.429949e+23) (0.000000e+00 0.000000e+00 0.000000e+00))
1260          	((-3.277070e+54 -1.237499e+54 -9.190450e+53) (-2.347529e+24 -1.099439e+24 -3.406455e+24) (0.000000e+00 0.000000e+00 0.000000e+00)) ((2.058758e+55 -5.485419e+55 1.152937e+54) (2.572949e+25 -6.921030e+25 3.694422e+23) (0.000000e+00 0.000000e+00 0.000000e+00))
1270          	((-9.935668e+54 -4.637827e+54 -3.436442e+54) (-4.734389e+24 -1.824830e+24 -8.177451e+24) (0.000000e+00 0.000000e+00 0.000000e+00)) ((8.275203e+55 -1.699910e+56 -1.873474e+53) (5.967367e+25 -1.433998e+26 -3.382524e+23) (0.000000e+00 0.000000e+00 0.000000e+00))
1280          	((-2.313509e+55 -1.165998e+55 -7.544682e+54) (-7.858215e+24 -3.631898e+24 -1.374850e+25) (0.000000e+00 0.000000e+00 0.000000e+00)) ((1.977533e+56 -3.945404e+56 5.508470e+54) (1.076483e+26 -2.399066e+26 6.298644e+24) (0.000000e+00 0.000000e+00 0.000000e+00))
1290          	((-6.307558e+55 -3.788760e+55 -2.927815e+55) (-1.209091e+25 -7.068474e+24 -2.577368e+25) (0.000000e+00 0.000000e+00 0.000000e+00)) ((6.465739e+56 -1.084099e+57 1.330017e+55) (2.043897e+26 -3.707660e+26 1.017171e+25) (0.000000e+00 0.000000e+00 0.000000e+00))
1300          	((-1.541438e+56 -7.422006e+55 -7.080572e+55) (-1.801048e+25 -1.042080e+25 -4.738624e+25) (0.000000e+00 0.000000e+00 0.000000e+00)) ((1.320253e+57 -2.647412e+57 -1.126076e+56) (3.377310e+26 -5.610272e+26 7.708120e+24) (0.000000e+00 0.000000e+00 0.000000e+00))
1310          	((-4.298075e+56 -2.778220e+56 -1.314173e+56) (-3.075859e+25 -1.773383e+25 -6.505345e+25) (0.000000e+00 0.000000e+00 0.000000e+00)) ((4.687626e+57 -7.162928e+57 1.919784e+55) (5.989718e+26 -8.466325e+26 -1.517605e+25) (0.000000e+00 0.000000e+00 0.000000e+00))
1320          	((-1.663155e+57 -1.073886e+57 -5.922895e+56) (-5.620193e+25 -3.491733e+25 -1.223427e+26) (0.000000e+00 0.000000e+00 0.000000e+00)) ((1.804045e+58 -2.789198e+58 4.628147e+56) (1.127356e+27 -1.642419e+27 -3.606674e+25) (0.000000e+00 0.000000e+00 0.000000e+00))
1330          	((-4.867402e+57 -2.769796e+57 -1.862255e+57) (-1.023524e+26 -6.131679e+25 -2.221201e+26) (0.000000e+00 0.000000e+00 0.000000e+00)) ((4.734587e+58 -8.250250e+58 1.504508e+57) (1.938867e+27 -2.856385e+27 -4.494145e+25) (0.000000e+00 0.000000e+00 0.000000e+00))
1340          	((-1.354789e+58 -7.922287e+57 -5.136225e+57) (-1.725165e+26 -1.051643e+26 -3.858021e+26) (0.000000e+00 0.000000e+00 0.000000e+00)) ((1.353980e+59 -2.269698e+59 -3.280460e+57) (3.104533e+27 -4.661435e+27 -1.066346e+26) (0.000000e+00 0.000000e+00 0.000000e+00))
1350          	((-3.836356e+58 -2.215748e+58 -1.316614e+58) (-2.899052e+26 -1.784554e+26 -5.890229e+26) (0.000000e+00 0.000000e+00 0.000000e+00)) ((3.874083e+59 -6.411557e+59 -2.300632e+58) (5.173975e+27 -7.754654e+27 -6.945304e+25) (0.000000e+00 0.000000e+00 0.000000e+00))
1360          	((-9.497340e+58 -5.765745e+58 -3.766886e+58) (-4.449361e+26 -2.789612e+26 -1.002096e+27) (0.000000e+00 0.000000e+00 0.000000e+00)) ((9.879545e+59 -1.605227e+60 -7.682910e+57) (7.594860e+27 -1.273541e+28 1.313012e+26) (0.000000e+00 0.000000e+00 0.000000e+00))
1370          	((-2.671178e+59 -1.978360e+59 -1.007005e+59) (-7.301324e+26 -5.731806e+26 -1.604085e+27) (0.000000e+00 0.000000e+00 0.000000e+00)) ((3.365837e+60 -4.495678e+60 8.192082e+58) (1.519106e+28 -2.128776e+28 -1.831127e+26) (0.000000e+00 0.000000e+00 0.000000e+00))
1380          	((-9.723665e+59 -5.306845e+59 -3.483901e+59) (-1.479152e+27 -8.559868e+26 -2.907409e+27) (0.000000e+00 0.000000e+00 0.000000e+00)) ((9.161937e+60 -1.659005e+61 4.449538e+59) (2.508214e+28 -3.900609e+28 -1.705743e+25) (0.000000e+00 0.000000e+00 0.000000e+00))
1390          	((-2.736271e+60 -1.547506e+60 -8.078357e+59) (-2.658028e+27 -1.369250e+27 -4.750363e+27) (0.000000e+00 0.000000e+00 0.000000e+00)) ((2.645500e+61 -4.580306e+61 -1.435885e+60) (4.075264e+28 -6.825557e+28 -1.317798e+27) (0.000000e+00 0.000000e+00 0.000000e+00))
1400          	((-7.578642e+60 -3.892241e+60 -2.293984e+60) (-4.115019e+27 -2.341654e+27 -6.716219e+27) (0.000000e+00 0.000000e+00 0.000000e+00)) ((6.882694e+61 -1.282088e+62 -8.923123e+59) (7.819251e+28 -1.132801e+29 -6.470992e+27) (0.000000e+00 0.000000e+00 0.000000e+00))
1410          	((-2.161541e+61 -8.718372e+60 -4.483368e+60) (-7.385564e+27 -3.749812e+27 -9.165207e+27) (0.000000e+00 0.000000e+00 0.000000e+00)) ((1.512624e+62 -3.521000e+62 -5.601156e+59) (1.162572e+29 -1.958345e+29 -5.240194e+27) (0.000000e+00 0.000000e+00 0.000000e+00))
1420          	((-6.862109e+61 -2.065704e+61 -2.283475e+61) (-1.348443e+28 -5.764390e+27 -1.989736e+28) (0.000000e+00 0.000000e+00 0.000000e+00)) ((3.444565e+62 -1.139309e+63 -8.354280e+60) (1.435746e+29 -3.467686e+29 9.050486e+26) (0.000000e+00 0.000000e+00 0.000000e+00))
1430          	((-2.168187e+62 -9.250907e+61 -8.305459e+61) (-2.435215e+28 -9.024357e+27 -4.261982e+28) (0.000000e+00 0.000000e+00 0.000000e+00)) ((1.534617e+63 -3.732755e+63 2.120544e+62) (1.916386e+29 -6.122487e+29 -1.114105e+28) (0.000000e+00 0.000000e+00 0.000000e+00))
1440          	((-5.741880e+62 -4.072095e+62 -1.715004e+62) (-3.807440e+28 -1.945717e+28 -6.517794e+28) (0.000000e+00 0.000000e+00 0.000000e+00)) ((6.295102e+63 -9.893940e+63 1.092865e+63) (4.265661e+29 -1.013968e+30 2.343195e+28) (0.000000e+00 0.000000e+00 0.000000e+00))
1450          	((-1.471480e+63 -1.299298e+63 -2.973505e+62) (-5.537220e+28 -3.984199e+28 -7.275102e+28) (0.000000e+00 0.000000e+00 0.000000e+00)) ((2.111048e+64 -2.429909e+64 5.190416e+62) (1.178434e+30 -1.639514e+30 1.032825e+28) (0.000000e+00 0.000000e+00 0.000000e+00))
1460          	((-4.142605e+63 -1.830855e+63 -4.660886e+62) (-8.295601e+28 -5.187940e+28 -5.584365e+28) (0.000000e+00 0.000000e+00 0.000000e+00)) ((3.437828e+64 -6.717993e+64 -4.322911e+63) (2.033200e+30 -2.860699e+30 -1.172862e+28) (0.000000e+00 0.000000e+00 0.000000e+00))
1470          	((-1.476347e+64 -9.770194e+63 -3.311703e+63) (-1.842420e+29 -9.895258e+28 -1.742525e+29) (0.000000e+00 0.000000e+00 0.000000e+00)) ((1.607935e+65 -2.399922e+65 6.609022e+63) (3.623554e+30 -5.076632e+30 -3.046899e+29) (0.000000e+00 0.000000e+00 0.000000e+00))
1480          	((-4.326761e+64 -2.864068e+64 -1.102678e+64) (-3.491277e+29 -2.149613e+29 -4.215441e+29) (0.000000e+00 0.000000e+00 0.000000e+00)) ((5.099254e+65 -7.033037e+65 -4.315682e+64) (6.649671e+30 -8.467857e+30 -6.144875e+29) (0.000000e+00 0.000000e+00 0.000000e+00))
1490          	((-1.494092e+65 -4.935419e+64 -3.916472e+64) (-5.887045e+29 -2.564104e+29 -8.357660e+29) (0.000000e+00 0.000000e+00 0.000000e+00)) ((9.354874e+65 -2.509865e+66 -2.857992e+64) (9.350441e+30 -1.695393e+31 -6.178459e+29) (0.000000e+00 0.000000e+00 0.000000e+00))
1500          	((-4.474718e+65 -2.223848e+65 -1.660223e+65) (-1.086128e+30 -4.353115e+29 -1.908068e+30) (0.000000e+00 0.000000e+00 0.000000e+00)) ((3.954985e+66 -7.515948e+66 -1.795555e+65) (1.337124e+31 -2.975475e+31 -1.988891e+29) (0.000000e+00 0.000000e+00 0.000000e+00))
1510          	((-8.847212e+65 -5.164423e+65 -3.193967e+65) (-1.535838e+30 -8.221173e+29 -3.152534e+30) (0.000000e+00 0.000000e+00 0.000000e+00)) ((8.583740e+66 -1.515719e+67 -8.173757e+64) (1.871967e+31 -4.066015e+31 9.919785e+29) (0.000000e+00 0.000000e+00 0.000000e+00))
1520          	((-2.883533e+66 -1.733913e+66 -1.011251e+66) (-2.707920e+30 -1.550812e+30 -5.210963e+30) (0.000000e+00 0.000000e+00 0.000000e+00)) ((2.978785e+67 -4.791317e+67 -3.790363e+65) (3.627295e+31 -6.843667e+31 1.367120e+29) (0.000000e+00 0.000000e+00 0.000000e+00))
1530          	((-4.848732e+66 -4.756907e+66 -1.366061e+66) (-3.721548e+30 -3.085591e+30 -5.697303e+30) (0.000000e+00 0.000000e+00 0.000000e+00)) ((7.657324e+67 -8.344210e+67 5.193665e+66) (7.714868e+31 -8.941595e+31 -2.690405e+30) (0.000000e+00 0.000000e+00 0.000000e+00))
1540          	((-1.915231e+67 -1.759237e+67 -5.099559e+66) (-5.906495e+30 -5.695288e+30 -8.800604e+30) (0.000000e+00 0.000000e+00 0.000000e+00)) ((2.869564e+68 -3.155476e+68 -1.772346e+66) (1.619872e+32 -1.597562e+32 -3.549037e+30) (0.000000e+00 0.000000e+00 0.000000e+00))
1550          	((-7.033660e+67 -4.762994e+67 -1.781827e+67) (-1.130286e+31 -9.404742e+30 -1.718450e+31) (0.000000e+00 0.000000e+00 0.000000e+00)) ((7.827203e+68 -1.159723e+69 5.078310e+66) (2.814706e+32 -3.160685e+32 -1.623646e+31) (0.000000e+00 0.000000e+00 0.000000e+00))
1560          	((-3.194694e+68 -1.864831e+68 -8.593547e+67) (-2.636320e+31 -1.668658e+31 -3.489451e+31) (0.000000e+00 0.000000e+00 0.000000e+00)) ((3.181681e+69 -5.221135e+69 -6.254385e+66) (4.768872e+32 -7.137001e+32 -2.785386e+31) (0.000000e+00 0.000000e+00 0.000000e+00))
1570          	((-6.938693e+68 -5.193934e+68 -2.649930e+68) (-4.275327e+31 -2.988854e+31 -7.082239e+31) (0.000000e+00 0.000000e+00 0.000000e+00)) ((8.767175e+69 -1.172370e+70 4.941360e+68) (9.004010e+32 -1.154252e+33 -4.699020e+31) (0.000000e+00 0.000000e+00 0.000000e+00))