/*--------------------------------*- C++ -*----------------------------------*\
  =========                 |
  \\      /  F ield         | OpenFOAM: The Open Source CFD Toolbox
   \\    /   O peration     | Website:  https://openfoam.org
    \\  /    A nd           | Version:  8
     \\/     M anipulation  |
\*---------------------------------------------------------------------------*/
FoamFile
{
    version     2.0;
    format      ascii;
    class       volScalarField;
    location    "0.2";
    object      p;
}
// * * * * * * * * * * * * * * * * * * * * * * * * * * * * * * * * * * * * * //

dimensions      [0 2 -2 0 0 0 0];

internalField   nonuniform List<scalar> 
12225
(
-1.16439
-1.52361
-1.52984
-1.51241
-1.51002
-1.50619
-1.50052
-1.49445
-1.4882
-1.48179
-1.47529
-1.46873
-1.46214
-1.4555
-1.44882
-1.44211
-1.43523
-1.43081
-1.22769
-1.51482
-1.52564
-1.51022
-1.50864
-1.50525
-1.49976
-1.49383
-1.48769
-1.48136
-1.47491
-1.4684
-1.46183
-1.45523
-1.44856
-1.44186
-1.43494
-1.42911
-1.28867
-1.50178
-1.52001
-1.50767
-1.5069
-1.50409
-1.49885
-1.49308
-1.48707
-1.48083
-1.47446
-1.468
-1.46149
-1.45491
-1.44827
-1.44158
-1.43458
-1.4277
-1.33501
-1.48864
-1.5141
-1.50543
-1.50504
-1.50285
-1.49791
-1.49231
-1.48644
-1.48031
-1.47402
-1.46762
-1.46116
-1.45464
-1.44803
-1.44134
-1.43427
-1.42699
-1.37171
-1.47929
-1.50815
-1.50331
-1.50305
-1.50141
-1.49687
-1.49145
-1.48574
-1.47974
-1.47354
-1.46724
-1.46084
-1.45438
-1.44782
-1.44115
-1.43408
-1.42681
-1.40243
-1.47479
-1.50263
-1.50117
-1.50094
-1.4997
-1.49561
-1.49044
-1.4849
-1.47906
-1.473
-1.46679
-1.4605
-1.45412
-1.44764
-1.44103
-1.43407
-1.42701
-1.42817
-1.47431
-1.49809
-1.49911
-1.49884
-1.49775
-1.49411
-1.48921
-1.48388
-1.47823
-1.47232
-1.46626
-1.46009
-1.45383
-1.44747
-1.441
-1.43424
-1.42754
-1.4495
-1.47673
-1.49487
-1.49731
-1.49695
-1.49575
-1.49242
-1.4878
-1.48267
-1.47722
-1.4715
-1.4656
-1.4596
-1.4535
-1.44732
-1.44104
-1.43459
-1.42831
-1.46707
-1.48106
-1.49309
-1.49589
-1.49539
-1.49387
-1.49068
-1.48628
-1.48134
-1.47607
-1.47054
-1.46483
-1.45902
-1.45312
-1.44716
-1.44115
-1.43507
-1.42924
-1.48153
-1.48647
-1.49265
-1.49493
-1.49422
-1.49227
-1.48904
-1.48477
-1.47997
-1.47486
-1.46951
-1.464
-1.45838
-1.45271
-1.447
-1.44131
-1.43562
-1.43023
-1.4935
-1.49234
-1.49332
-1.49444
-1.49342
-1.49102
-1.4876
-1.48338
-1.47868
-1.47369
-1.4685
-1.46316
-1.45775
-1.45231
-1.44688
-1.4415
-1.43622
-1.43122
-1.50265
-1.49777
-1.49472
-1.49441
-1.49299
-1.49017
-1.48651
-1.48225
-1.47759
-1.47269
-1.46762
-1.46244
-1.45721
-1.45198
-1.4468
-1.44171
-1.43677
-1.4321
-1.51031
-1.50296
-1.4966
-1.49469
-1.4928
-1.48961
-1.48567
-1.48132
-1.47669
-1.47185
-1.46688
-1.46184
-1.45678
-1.45176
-1.44681
-1.44199
-1.43736
-1.43298
-1.51759
-1.50841
-1.49914
-1.49537
-1.49284
-1.48926
-1.48499
-1.48049
-1.47585
-1.47107
-1.4662
-1.46131
-1.45643
-1.45162
-1.44692
-1.44237
-1.43803
-1.43395
-1.52426
-1.5138
-1.50217
-1.49651
-1.49315
-1.48917
-1.48455
-1.47985
-1.47515
-1.47042
-1.46565
-1.46089
-1.4562
-1.4516
-1.44714
-1.44285
-1.4388
-1.43498
-1.53006
-1.51875
-1.50536
-1.498
-1.49376
-1.48935
-1.48441
-1.47947
-1.4747
-1.47
-1.46532
-1.46069
-1.45616
-1.45176
-1.44753
-1.44348
-1.43966
-1.43607
-1.5346
-1.52277
-1.50823
-1.49957
-1.49454
-1.48976
-1.48456
-1.47942
-1.47456
-1.46988
-1.46527
-1.46076
-1.45638
-1.45215
-1.4481
-1.44423
-1.44059
-1.43716
-1.53724
-1.52518
-1.51009
-1.50074
-1.49526
-1.49026
-1.48493
-1.47971
-1.47481
-1.47015
-1.46562
-1.46121
-1.45694
-1.45283
-1.4489
-1.44515
-1.4416
-1.43824
-1.53683
-1.52486
-1.50995
-1.50078
-1.49546
-1.4906
-1.48538
-1.48025
-1.47545
-1.47088
-1.46644
-1.46211
-1.45791
-1.45387
-1.44998
-1.44626
-1.44272
-1.43935
-1.53208
-1.52071
-1.50708
-1.49935
-1.49501
-1.4907
-1.48587
-1.48106
-1.47649
-1.47207
-1.4677
-1.46341
-1.45923
-1.45517
-1.45124
-1.44746
-1.44383
-1.44036
-1.52483
-1.51455
-1.50315
-1.49762
-1.49455
-1.49086
-1.48651
-1.48209
-1.47776
-1.47343
-1.4691
-1.46481
-1.4606
-1.45648
-1.45247
-1.44859
-1.44485
-1.44126
-1.51461
-1.50644
-1.49882
-1.49627
-1.49449
-1.49142
-1.48759
-1.48355
-1.47939
-1.4751
-1.47075
-1.46641
-1.46211
-1.45788
-1.45375
-1.44973
-1.44584
-1.44208
-1.50099
-1.49682
-1.49512
-1.49592
-1.49508
-1.49253
-1.48923
-1.48548
-1.48136
-1.47702
-1.47258
-1.46812
-1.46368
-1.4593
-1.45501
-1.45082
-1.44676
-1.44282
-1.48311
-1.48644
-1.49325
-1.49699
-1.49642
-1.49431
-1.49146
-1.48778
-1.48354
-1.47905
-1.47447
-1.46984
-1.46523
-1.46067
-1.45621
-1.45186
-1.44764
-1.44351
-1.45978
-1.47654
-1.49427
-1.49948
-1.49847
-1.49675
-1.4941
-1.49024
-1.48575
-1.48105
-1.47625
-1.47143
-1.46663
-1.46191
-1.45729
-1.4528
-1.44844
-1.44418
-1.42977
-1.46945
-1.49871
-1.50286
-1.50107
-1.49964
-1.4968
-1.49252
-1.48772
-1.48277
-1.47776
-1.47274
-1.46777
-1.46291
-1.45818
-1.45358
-1.44914
-1.4448
-1.39155
-1.46897
-1.50658
-1.50655
-1.50396
-1.50251
-1.49912
-1.49437
-1.48927
-1.4841
-1.47889
-1.47372
-1.46864
-1.46369
-1.45888
-1.45422
-1.44973
-1.44536
-1.34013
-1.47712
-1.5168
-1.51031
-1.5069
-1.50498
-1.50092
-1.49577
-1.49045
-1.4851
-1.47976
-1.47449
-1.46933
-1.46432
-1.45946
-1.45477
-1.45024
-1.44586
-1.26738
-1.48867
-1.52686
-1.51431
-1.50974
-1.50694
-1.50232
-1.49693
-1.49143
-1.48594
-1.4805
-1.47515
-1.46994
-1.46488
-1.45998
-1.45526
-1.45071
-1.44632
-1.18957
-1.49575
-1.53379
-1.51748
-1.51181
-1.50827
-1.50333
-1.49778
-1.49216
-1.48657
-1.48105
-1.47565
-1.47039
-1.4653
-1.46037
-1.45563
-1.45106
-1.44666
-1.38419
-1.38411
-1.38416
-1.38439
-1.3848
-1.38536
-1.38608
-1.38694
-1.38796
-1.38912
-1.39045
-1.39193
-1.39357
-1.39538
-1.39736
-1.39952
-1.40184
-1.40434
-1.40701
-1.40985
-1.41285
-1.41602
-1.41932
-1.42276
-1.42631
-1.42994
-1.43361
-1.43728
-1.44089
-1.44437
-1.44765
-1.45064
-1.45324
-1.45535
-1.45684
-1.45759
-1.4575
-1.45642
-1.45426
-1.45089
-1.44621
-1.44015
-1.43263
-1.42362
-1.41309
-1.40104
-1.38751
-1.37256
-1.35627
-1.33876
-1.32016
-1.30064
-1.28038
-1.25959
-1.23849
-1.21728
-1.19618
-1.1754
-1.15513
-1.13552
-1.11674
-1.09889
-1.08206
-1.0663
-1.05166
-1.03814
-1.02572
-1.01436
-1.00402
-0.994637
-0.986139
-0.978451
-0.971497
-0.9652
-0.959486
-0.954283
-0.949523
-0.945142
-0.941082
-0.937287
-0.933709
-0.930305
-0.927036
-0.923867
-0.920768
-0.917714
-0.914682
-0.911653
-0.908609
-0.905537
-0.902422
-0.899255
-0.896028
-0.892732
-0.889362
-0.885913
-0.882379
-0.878758
-0.875046
-0.871241
-0.867342
-0.863348
-0.859257
-0.855069
-0.850785
-0.846405
-0.841929
-0.837358
-0.832694
-0.827937
-0.82309
-0.818154
-0.81313
-0.808022
-0.80283
-0.797557
-0.792204
-0.786775
-0.781269
-0.775691
-0.77004
-0.76432
-0.758531
-0.752675
-0.746754
-0.74077
-0.734722
-0.728614
-0.722444
-0.716216
-0.709929
-0.703585
-0.697183
-0.690725
-0.684211
-0.677642
-0.671017
-0.664338
-0.657604
-0.650815
-0.643971
-0.637072
-0.630119
-0.623111
-0.616047
-0.608928
-0.601753
-0.594522
-0.587235
-0.579891
-0.572489
-0.56503
-0.557514
-0.549938
-0.542304
-0.534611
-0.526858
-0.519045
-0.511171
-0.503236
-0.49524
-0.48718
-0.479059
-0.470873
-0.462624
-0.454311
-0.445932
-0.437488
-0.428978
-0.420402
-0.411759
-0.403049
-0.394273
-0.385431
-0.376525
-0.367558
-0.358532
-0.349471
-0.340302
-0.331568
-1.38386
-1.38383
-1.38391
-1.38415
-1.38454
-1.38508
-1.38576
-1.38657
-1.38754
-1.38865
-1.38991
-1.39132
-1.39289
-1.39462
-1.39651
-1.39857
-1.40079
-1.40318
-1.40574
-1.40845
-1.41133
-1.41437
-1.41755
-1.42087
-1.42431
-1.42784
-1.43143
-1.43505
-1.43864
-1.44214
-1.44549
-1.44859
-1.45136
-1.45369
-1.45545
-1.45653
-1.4568
-1.45613
-1.45438
-1.45145
-1.44721
-1.44157
-1.43446
-1.42581
-1.41561
-1.40385
-1.39055
-1.37575
-1.35954
-1.34203
-1.3234
-1.30379
-1.28342
-1.2625
-1.24123
-1.21984
-1.19856
-1.17759
-1.15713
-1.13735
-1.1184
-1.1004
-1.08342
-1.06754
-1.05279
-1.03916
-1.02665
-1.01522
-1.00481
-0.995361
-0.986805
-0.979065
-0.972061
-0.965716
-0.95996
-0.954717
-0.949919
-0.945501
-0.941404
-0.937574
-0.933963
-0.930527
-0.927228
-0.924031
-0.920907
-0.91783
-0.914776
-0.911727
-0.908665
-0.905576
-0.902449
-0.89927
-0.896033
-0.892728
-0.889351
-0.885895
-0.882356
-0.87873
-0.875015
-0.871208
-0.867308
-0.863312
-0.859221
-0.855033
-0.850749
-0.84637
-0.841894
-0.837325
-0.832662
-0.827906
-0.823061
-0.818126
-0.813104
-0.807997
-0.802807
-0.797535
-0.792184
-0.786755
-0.781252
-0.775674
-0.770025
-0.764305
-0.758518
-0.752663
-0.746743
-0.740759
-0.734712
-0.728604
-0.722436
-0.716208
-0.709922
-0.703578
-0.697177
-0.690719
-0.684206
-0.677637
-0.671012
-0.664333
-0.657599
-0.65081
-0.643967
-0.637069
-0.630116
-0.623108
-0.616044
-0.608925
-0.60175
-0.594519
-0.587232
-0.579888
-0.572487
-0.565028
-0.557511
-0.549936
-0.542302
-0.534609
-0.526856
-0.519043
-0.511169
-0.503234
-0.495237
-0.487177
-0.479055
-0.47087
-0.46262
-0.454306
-0.445927
-0.437482
-0.428971
-0.420394
-0.411749
-0.403038
-0.394259
-0.385415
-0.376505
-0.367533
-0.358498
-0.349428
-0.340238
-0.331491
-1.38279
-1.38285
-1.38301
-1.3833
-1.3837
-1.38423
-1.38488
-1.38566
-1.38658
-1.38763
-1.38883
-1.39018
-1.39168
-1.39334
-1.39516
-1.39715
-1.39931
-1.40163
-1.40413
-1.40681
-1.40967
-1.41272
-1.41594
-1.41934
-1.42291
-1.42663
-1.43048
-1.43442
-1.4384
-1.44236
-1.44623
-1.44991
-1.45331
-1.45629
-1.45873
-1.46049
-1.46142
-1.46138
-1.46022
-1.4578
-1.45402
-1.44875
-1.44192
-1.43347
-1.42337
-1.41161
-1.39821
-1.38323
-1.36678
-1.34899
-1.33002
-1.31004
-1.28924
-1.26786
-1.24613
-1.22426
-1.20251
-1.18108
-1.16018
-1.14
-1.12067
-1.10234
-1.08507
-1.06894
-1.05398
-1.04018
-1.02753
-1.01598
-1.00548
-0.995968
-0.987354
-0.979563
-0.97252
-0.966145
-0.960362
-0.955094
-0.950273
-0.945832
-0.941713
-0.937862
-0.93423
-0.930773
-0.927453
-0.924236
-0.921092
-0.917996
-0.914925
-0.911859
-0.908781
-0.905678
-0.902536
-0.899346
-0.896097
-0.892782
-0.889396
-0.885932
-0.882385
-0.878754
-0.875033
-0.871222
-0.867317
-0.863318
-0.859224
-0.855034
-0.850748
-0.846367
-0.84189
-0.837319
-0.832656
-0.8279
-0.823053
-0.818118
-0.813096
-0.807989
-0.802799
-0.797527
-0.792176
-0.786748
-0.781244
-0.775667
-0.770017
-0.764298
-0.758511
-0.752656
-0.746736
-0.740753
-0.734706
-0.728598
-0.72243
-0.716203
-0.709916
-0.703573
-0.697172
-0.690714
-0.684201
-0.677632
-0.671008
-0.664329
-0.657596
-0.650807
-0.643964
-0.637066
-0.630113
-0.623105
-0.616041
-0.608923
-0.601748
-0.594517
-0.58723
-0.579886
-0.572484
-0.565026
-0.557509
-0.549934
-0.5423
-0.534607
-0.526854
-0.51904
-0.511166
-0.503231
-0.495234
-0.487175
-0.479052
-0.470867
-0.462617
-0.454302
-0.445922
-0.437477
-0.428965
-0.420386
-0.41174
-0.403027
-0.394246
-0.385398
-0.376483
-0.367505
-0.358461
-0.349384
-0.340162
-0.331438
-1.38107
-1.38125
-1.38153
-1.38187
-1.3823
-1.38282
-1.38345
-1.38419
-1.38506
-1.38606
-1.38721
-1.38852
-1.38998
-1.39162
-1.39343
-1.39542
-1.39761
-1.4
-1.40261
-1.40545
-1.40853
-1.41187
-1.41546
-1.41932
-1.42344
-1.4278
-1.43238
-1.43713
-1.44199
-1.44689
-1.45173
-1.45641
-1.46078
-1.46472
-1.46805
-1.47064
-1.4723
-1.4729
-1.47226
-1.47026
-1.46677
-1.46168
-1.45493
-1.44644
-1.4362
-1.42419
-1.41047
-1.39511
-1.3782
-1.35989
-1.34032
-1.31968
-1.2982
-1.27609
-1.2536
-1.23098
-1.20848
-1.18633
-1.16475
-1.14393
-1.12402
-1.10517
-1.08746
-1.07094
-1.05566
-1.04159
-1.02873
-1.01701
-1.00638
-0.996759
-0.988056
-0.980202
-0.973112
-0.966702
-0.960889
-0.955597
-0.950754
-0.946293
-0.942155
-0.938284
-0.934632
-0.931155
-0.927815
-0.924577
-0.921413
-0.918296
-0.915204
-0.912119
-0.909022
-0.9059
-0.902741
-0.899533
-0.896269
-0.892939
-0.889538
-0.886061
-0.882503
-0.87886
-0.87513
-0.871309
-0.867395
-0.863389
-0.859287
-0.855091
-0.850799
-0.846412
-0.841931
-0.837355
-0.832687
-0.827927
-0.823078
-0.81814
-0.813115
-0.808005
-0.802812
-0.797538
-0.792185
-0.786755
-0.78125
-0.775671
-0.770021
-0.764301
-0.758512
-0.752657
-0.746736
-0.740752
-0.734705
-0.728597
-0.722428
-0.7162
-0.709914
-0.70357
-0.697169
-0.690712
-0.684198
-0.67763
-0.671006
-0.664327
-0.657593
-0.650804
-0.643961
-0.637063
-0.630111
-0.623103
-0.616039
-0.608921
-0.601746
-0.594515
-0.587228
-0.579884
-0.572483
-0.565024
-0.557508
-0.549933
-0.542299
-0.534605
-0.526852
-0.519039
-0.511165
-0.50323
-0.495233
-0.487173
-0.479051
-0.470865
-0.462615
-0.4543
-0.44592
-0.437474
-0.428962
-0.420382
-0.411735
-0.40302
-0.394238
-0.385387
-0.376469
-0.367487
-0.358436
-0.349354
-0.340117
-0.331403
-1.37903
-1.37934
-1.37972
-1.38012
-1.38055
-1.38106
-1.38165
-1.38236
-1.38319
-1.38417
-1.3853
-1.3866
-1.38809
-1.38977
-1.39167
-1.39379
-1.39616
-1.39881
-1.40175
-1.405
-1.40859
-1.41254
-1.41686
-1.42154
-1.42658
-1.43195
-1.43761
-1.4435
-1.44954
-1.45562
-1.46164
-1.46744
-1.47289
-1.47782
-1.48205
-1.48543
-1.48777
-1.48892
-1.48873
-1.48706
-1.48378
-1.4788
-1.47205
-1.46345
-1.45301
-1.44072
-1.42663
-1.4108
-1.39334
-1.37438
-1.35409
-1.33265
-1.31029
-1.28727
-1.26383
-1.24024
-1.21678
-1.19369
-1.17122
-1.14956
-1.1289
-1.10936
-1.09105
-1.07402
-1.05829
-1.04386
-1.0307
-1.01875
-1.00792
-0.998127
-0.989303
-0.981353
-0.974186
-0.967711
-0.961845
-0.956505
-0.951619
-0.947119
-0.942942
-0.939033
-0.935343
-0.931829
-0.928452
-0.925178
-0.921977
-0.918825
-0.915699
-0.91258
-0.909451
-0.906298
-0.903109
-0.899874
-0.896582
-0.893228
-0.889803
-0.886304
-0.882725
-0.879062
-0.875313
-0.871475
-0.867546
-0.863525
-0.85941
-0.855201
-0.850898
-0.846501
-0.84201
-0.837425
-0.832749
-0.827982
-0.823126
-0.818182
-0.813151
-0.808036
-0.802839
-0.797561
-0.792205
-0.786772
-0.781263
-0.775682
-0.770029
-0.764307
-0.758517
-0.75266
-0.746739
-0.740753
-0.734705
-0.728596
-0.722427
-0.716199
-0.709912
-0.703568
-0.697166
-0.690709
-0.684196
-0.677627
-0.671003
-0.664324
-0.65759
-0.650802
-0.643959
-0.637061
-0.630108
-0.623101
-0.616037
-0.608919
-0.601744
-0.594514
-0.587227
-0.579883
-0.572482
-0.565023
-0.557507
-0.549932
-0.542298
-0.534605
-0.526852
-0.519039
-0.511165
-0.50323
-0.495233
-0.487174
-0.479051
-0.470866
-0.462616
-0.454301
-0.445921
-0.437475
-0.428963
-0.420383
-0.411736
-0.403021
-0.394238
-0.385387
-0.376468
-0.367485
-0.358432
-0.34935
-0.340115
-0.331387
-1.37703
-1.37745
-1.37791
-1.37834
-1.37877
-1.37925
-1.37983
-1.38051
-1.38134
-1.38233
-1.38349
-1.38486
-1.38645
-1.38828
-1.39039
-1.39279
-1.39553
-1.39863
-1.40212
-1.40604
-1.4104
-1.41523
-1.42052
-1.42628
-1.43248
-1.43907
-1.44599
-1.45316
-1.46047
-1.46781
-1.47503
-1.48197
-1.48848
-1.49438
-1.49949
-1.50363
-1.50664
-1.50834
-1.50859
-1.50725
-1.50419
-1.49933
-1.49259
-1.48391
-1.47328
-1.46071
-1.44623
-1.42991
-1.41186
-1.39219
-1.37108
-1.34874
-1.32539
-1.30129
-1.27672
-1.25199
-1.22737
-1.20315
-1.17959
-1.15692
-1.13533
-1.11496
-1.09591
-1.07824
-1.06197
-1.0471
-1.03356
-1.02129
-1.01019
-1.0002
-0.991213
-0.983127
-0.975846
-0.969274
-0.963323
-0.957908
-0.952953
-0.948386
-0.944146
-0.940176
-0.936426
-0.932854
-0.929419
-0.926088
-0.922833
-0.919627
-0.916449
-0.91328
-0.910103
-0.906903
-0.90367
-0.900392
-0.897061
-0.893669
-0.890209
-0.886675
-0.883064
-0.879372
-0.875595
-0.871731
-0.867777
-0.863733
-0.859597
-0.855369
-0.851048
-0.846634
-0.842128
-0.83753
-0.832841
-0.828063
-0.823196
-0.818242
-0.813204
-0.808081
-0.802877
-0.797593
-0.792232
-0.786794
-0.781281
-0.775696
-0.770041
-0.764316
-0.758523
-0.752664
-0.746741
-0.740754
-0.734705
-0.728595
-0.722425
-0.716196
-0.709909
-0.703564
-0.697163
-0.690705
-0.684192
-0.677623
-0.670999
-0.66432
-0.657587
-0.650799
-0.643956
-0.637058
-0.630106
-0.623098
-0.616035
-0.608917
-0.601743
-0.594512
-0.587225
-0.579882
-0.572481
-0.565022
-0.557506
-0.549931
-0.542298
-0.534605
-0.526852
-0.519039
-0.511166
-0.503231
-0.495234
-0.487175
-0.479054
-0.470868
-0.462619
-0.454305
-0.445926
-0.43748
-0.428969
-0.420391
-0.411745
-0.403031
-0.394249
-0.3854
-0.376483
-0.367502
-0.358453
-0.349376
-0.340156
-0.331396
-1.37546
-1.37595
-1.37646
-1.37689
-1.37731
-1.37779
-1.37836
-1.37905
-1.37991
-1.38096
-1.38222
-1.38373
-1.38552
-1.38761
-1.39005
-1.39288
-1.39613
-1.39984
-1.40405
-1.40879
-1.41408
-1.41994
-1.42634
-1.43328
-1.44071
-1.44858
-1.45679
-1.46525
-1.47384
-1.48241
-1.49082
-1.49889
-1.50645
-1.51333
-1.51932
-1.52425
-1.52794
-1.53022
-1.53094
-1.52996
-1.52717
-1.52246
-1.51576
-1.50704
-1.49627
-1.48345
-1.46862
-1.45183
-1.43319
-1.41282
-1.39088
-1.36758
-1.34316
-1.31789
-1.29207
-1.26604
-1.24011
-1.21459
-1.18978
-1.16593
-1.14325
-1.1219
-1.102
-1.08358
-1.06669
-1.05128
-1.03729
-1.02463
-1.01323
-1.00299
-0.993792
-0.985532
-0.978101
-0.971401
-0.965334
-0.959814
-0.954761
-0.950102
-0.945774
-0.941719
-0.937886
-0.934233
-0.930719
-0.927313
-0.923983
-0.920706
-0.917459
-0.914223
-0.910982
-0.907721
-0.90443
-0.901096
-0.897712
-0.894269
-0.890761
-0.887183
-0.883529
-0.879796
-0.875981
-0.872082
-0.868095
-0.86402
-0.859855
-0.8556
-0.851254
-0.846817
-0.84229
-0.837672
-0.832966
-0.828171
-0.82329
-0.818324
-0.813273
-0.80814
-0.802927
-0.797635
-0.792266
-0.786822
-0.781304
-0.775714
-0.770054
-0.764326
-0.75853
-0.752669
-0.746743
-0.740755
-0.734704
-0.728593
-0.722422
-0.716192
-0.709905
-0.70356
-0.697158
-0.6907
-0.684187
-0.677618
-0.670994
-0.664316
-0.657582
-0.650794
-0.643952
-0.637055
-0.630102
-0.623095
-0.616032
-0.608914
-0.60174
-0.59451
-0.587224
-0.57988
-0.57248
-0.565022
-0.557506
-0.549931
-0.542298
-0.534605
-0.526853
-0.519041
-0.511168
-0.503233
-0.495237
-0.487179
-0.479057
-0.470873
-0.462625
-0.454312
-0.445934
-0.43749
-0.42898
-0.420404
-0.411761
-0.40305
-0.394272
-0.385427
-0.376515
-0.367541
-0.3585
-0.349433
-0.340236
-0.331436
-1.37463
-1.37515
-1.37566
-1.37609
-1.37651
-1.37699
-1.37758
-1.37832
-1.37926
-1.38042
-1.38184
-1.38355
-1.38561
-1.38805
-1.39091
-1.39424
-1.39809
-1.4025
-1.40751
-1.41314
-1.4194
-1.42631
-1.43383
-1.44194
-1.45058
-1.45968
-1.46914
-1.47884
-1.48865
-1.49843
-1.508
-1.51718
-1.5258
-1.53365
-1.54053
-1.54626
-1.55065
-1.55353
-1.55473
-1.55414
-1.55162
-1.54709
-1.54047
-1.53174
-1.52087
-1.50786
-1.49274
-1.47557
-1.45642
-1.43541
-1.4127
-1.38848
-1.36299
-1.33653
-1.30941
-1.282
-1.25465
-1.22771
-1.20153
-1.17638
-1.1525
-1.13007
-1.1092
-1.08997
-1.07236
-1.05633
-1.04182
-1.02875
-1.017
-1.00646
-0.99702
-0.988548
-0.980935
-0.974072
-0.96786
-0.962205
-0.957027
-0.952249
-0.947807
-0.943643
-0.939705
-0.93595
-0.932338
-0.928836
-0.925414
-0.922048
-0.918716
-0.915398
-0.912079
-0.908743
-0.90538
-0.901978
-0.898529
-0.895024
-0.891457
-0.887824
-0.884117
-0.880335
-0.876473
-0.872529
-0.868501
-0.864387
-0.860185
-0.855896
-0.851519
-0.847052
-0.842498
-0.837856
-0.833127
-0.828312
-0.823412
-0.818429
-0.813363
-0.808217
-0.802992
-0.797689
-0.79231
-0.786858
-0.781333
-0.775737
-0.770072
-0.764338
-0.758539
-0.752674
-0.746746
-0.740755
-0.734703
-0.72859
-0.722418
-0.716187
-0.709899
-0.703554
-0.697152
-0.690694
-0.68418
-0.677612
-0.670988
-0.66431
-0.657577
-0.650789
-0.643947
-0.63705
-0.630098
-0.623091
-0.616029
-0.608911
-0.601738
-0.594508
-0.587222
-0.579879
-0.572479
-0.565021
-0.557505
-0.549931
-0.542298
-0.534606
-0.526854
-0.519042
-0.51117
-0.503236
-0.495241
-0.487183
-0.479063
-0.47088
-0.462632
-0.454321
-0.445945
-0.437503
-0.428996
-0.420423
-0.411783
-0.403077
-0.394304
-0.385465
-0.376562
-0.367597
-0.35857
-0.349516
-0.340349
-0.331507
-1.37471
-1.37521
-1.3757
-1.37612
-1.37653
-1.37704
-1.37767
-1.3785
-1.37954
-1.38086
-1.38248
-1.38445
-1.38682
-1.38964
-1.39295
-1.39682
-1.40129
-1.4064
-1.41219
-1.41867
-1.42587
-1.43376
-1.44232
-1.45152
-1.46128
-1.47153
-1.48214
-1.49301
-1.50399
-1.51491
-1.52559
-1.53584
-1.54547
-1.55426
-1.562
-1.56849
-1.57354
-1.57696
-1.57862
-1.57836
-1.57609
-1.57171
-1.56518
-1.55647
-1.54555
-1.53245
-1.51716
-1.49974
-1.48024
-1.45875
-1.43542
-1.41041
-1.38397
-1.35639
-1.32802
-1.29923
-1.27045
-1.24206
-1.21444
-1.18793
-1.16279
-1.13922
-1.11735
-1.09722
-1.07884
-1.06216
-1.04711
-1.03357
-1.02144
-1.01058
-1.00085
-0.992139
-0.984313
-0.977259
-0.970871
-0.965054
-0.959723
-0.954801
-0.950221
-0.945924
-0.941859
-0.937981
-0.934251
-0.930635
-0.927104
-0.923633
-0.9202
-0.916786
-0.913375
-0.909952
-0.906506
-0.903024
-0.8995
-0.895923
-0.892288
-0.88859
-0.884823
-0.880982
-0.877066
-0.87307
-0.868993
-0.864833
-0.860588
-0.856258
-0.851843
-0.847342
-0.842755
-0.838084
-0.833327
-0.828487
-0.823564
-0.81856
-0.813476
-0.808313
-0.803073
-0.797757
-0.792367
-0.786904
-0.78137
-0.775767
-0.770095
-0.764356
-0.758551
-0.752682
-0.746751
-0.740757
-0.734702
-0.728588
-0.722414
-0.716182
-0.709893
-0.703547
-0.697145
-0.690687
-0.684173
-0.677605
-0.670981
-0.664303
-0.657571
-0.650784
-0.643942
-0.637045
-0.630094
-0.623087
-0.616025
-0.608908
-0.601735
-0.594506
-0.58722
-0.579877
-0.572477
-0.56502
-0.557505
-0.549931
-0.542299
-0.534607
-0.526856
-0.519045
-0.511173
-0.50324
-0.495245
-0.487189
-0.47907
-0.470888
-0.462642
-0.454333
-0.445959
-0.43752
-0.429016
-0.420447
-0.411812
-0.403111
-0.394345
-0.385515
-0.376621
-0.367669
-0.358658
-0.349619
-0.340485
-0.331605
-1.37573
-1.37616
-1.3766
-1.37699
-1.37742
-1.37795
-1.37866
-1.37958
-1.38076
-1.38224
-1.38408
-1.38631
-1.389
-1.3922
-1.39596
-1.40033
-1.40537
-1.41112
-1.41761
-1.42486
-1.43287
-1.44163
-1.45111
-1.46127
-1.47202
-1.48329
-1.49494
-1.50686
-1.51889
-1.53085
-1.54254
-1.55377
-1.5643
-1.57393
-1.58242
-1.58957
-1.59517
-1.59904
-1.60104
-1.60104
-1.59894
-1.59466
-1.58821
-1.57954
-1.56865
-1.55554
-1.54023
-1.52274
-1.50311
-1.48138
-1.45767
-1.43211
-1.40494
-1.37643
-1.34694
-1.31691
-1.28677
-1.25698
-1.22797
-1.20012
-1.17374
-1.14903
-1.12613
-1.10511
-1.08595
-1.06861
-1.053
-1.039
-1.02646
-1.01525
-1.00523
-0.996251
-0.988188
-0.980917
-0.974329
-0.968325
-0.962816
-0.957726
-0.952985
-0.948533
-0.94432
-0.940299
-0.936433
-0.932686
-0.92903
-0.925439
-0.921892
-0.918369
-0.914853
-0.911331
-0.907791
-0.90422
-0.90061
-0.896953
-0.893242
-0.889471
-0.885634
-0.881729
-0.87775
-0.873696
-0.869564
-0.865352
-0.861059
-0.856684
-0.852225
-0.847684
-0.843061
-0.838354
-0.833566
-0.828697
-0.823748
-0.81872
-0.813614
-0.808431
-0.803174
-0.797842
-0.792438
-0.786963
-0.781418
-0.775805
-0.770125
-0.764379
-0.758569
-0.752695
-0.746759
-0.740761
-0.734704
-0.728587
-0.722411
-0.716178
-0.709888
-0.703541
-0.697138
-0.69068
-0.684166
-0.677597
-0.670974
-0.664296
-0.657564
-0.650777
-0.643936
-0.63704
-0.630089
-0.623083
-0.616021
-0.608905
-0.601732
-0.594503
-0.587218
-0.579875
-0.572476
-0.565019
-0.557504
-0.549931
-0.5423
-0.534609
-0.526858
-0.519047
-0.511176
-0.503244
-0.495251
-0.487195
-0.479078
-0.470897
-0.462653
-0.454346
-0.445975
-0.437539
-0.429039
-0.420474
-0.411845
-0.403151
-0.394393
-0.385572
-0.37669
-0.367752
-0.358758
-0.349737
-0.340635
-0.331727
-1.37753
-1.37787
-1.37824
-1.3786
-1.37903
-1.3796
-1.38037
-1.3814
-1.38271
-1.38437
-1.38641
-1.38889
-1.39186
-1.39539
-1.39953
-1.40434
-1.40986
-1.41614
-1.42321
-1.43108
-1.43977
-1.44925
-1.45949
-1.47044
-1.48202
-1.49414
-1.50667
-1.51948
-1.53239
-1.54523
-1.55777
-1.5698
-1.58109
-1.59139
-1.60047
-1.60811
-1.6141
-1.61828
-1.62049
-1.62064
-1.61863
-1.61443
-1.60802
-1.59941
-1.5886
-1.57561
-1.56044
-1.54308
-1.52355
-1.50185
-1.47804
-1.45224
-1.42461
-1.39545
-1.36511
-1.33403
-1.30273
-1.27171
-1.24147
-1.2124
-1.18486
-1.15909
-1.13523
-1.11336
-1.09348
-1.07551
-1.05936
-1.04489
-1.03196
-1.02041
-1.01007
-1.00082
-0.9925
-0.984995
-0.978186
-0.971974
-0.966267
-0.960987
-0.956065
-0.951439
-0.947059
-0.942879
-0.938859
-0.934965
-0.931169
-0.927445
-0.92377
-0.920126
-0.916495
-0.912864
-0.909219
-0.90555
-0.901846
-0.898101
-0.894305
-0.890454
-0.886543
-0.882565
-0.878519
-0.874401
-0.870209
-0.86594
-0.861593
-0.857167
-0.852662
-0.848076
-0.843411
-0.838667
-0.833844
-0.828942
-0.823963
-0.818908
-0.813777
-0.808572
-0.803295
-0.797945
-0.792525
-0.787036
-0.781479
-0.775855
-0.770165
-0.764411
-0.758593
-0.752713
-0.746772
-0.74077
-0.734709
-0.728589
-0.722411
-0.716176
-0.709884
-0.703536
-0.697132
-0.690673
-0.684159
-0.677591
-0.670967
-0.66429
-0.657558
-0.650771
-0.64393
-0.637034
-0.630084
-0.623078
-0.616017
-0.608901
-0.601728
-0.5945
-0.587215
-0.579873
-0.572475
-0.565018
-0.557504
-0.549931
-0.5423
-0.53461
-0.52686
-0.51905
-0.51118
-0.503249
-0.495256
-0.487202
-0.479086
-0.470907
-0.462666
-0.454361
-0.445993
-0.43756
-0.429064
-0.420504
-0.411881
-0.403194
-0.394444
-0.385634
-0.376765
-0.367841
-0.358866
-0.349863
-0.340792
-0.331864
-1.3799
-1.38013
-1.3804
-1.3807
-1.38113
-1.38173
-1.38256
-1.38367
-1.38511
-1.38691
-1.38912
-1.3918
-1.39501
-1.3988
-1.40324
-1.40837
-1.41425
-1.42093
-1.42843
-1.43677
-1.44595
-1.45597
-1.46677
-1.47832
-1.49053
-1.5033
-1.5165
-1.52999
-1.54358
-1.55707
-1.57025
-1.58287
-1.59469
-1.60546
-1.61493
-1.62289
-1.62912
-1.63346
-1.63577
-1.63597
-1.63398
-1.62981
-1.62346
-1.61494
-1.60429
-1.59151
-1.5766
-1.55956
-1.54034
-1.51893
-1.49531
-1.46956
-1.44181
-1.41231
-1.38143
-1.34964
-1.31749
-1.28551
-1.25425
-1.22416
-1.19564
-1.16895
-1.14427
-1.12167
-1.10115
-1.08263
-1.06601
-1.05112
-1.03782
-1.02593
-1.01529
-1.00576
-0.997181
-0.98943
-0.982388
-0.975952
-0.97003
-0.964544
-0.959424
-0.954608
-0.950045
-0.94569
-0.941502
-0.937449
-0.9335
-0.92963
-0.925817
-0.922041
-0.918285
-0.914535
-0.910777
-0.907001
-0.903196
-0.899354
-0.895468
-0.891531
-0.887538
-0.883483
-0.879364
-0.875177
-0.870919
-0.866588
-0.862184
-0.857703
-0.853147
-0.848514
-0.843804
-0.839018
-0.834157
-0.82922
-0.824208
-0.819123
-0.813965
-0.808736
-0.803436
-0.798066
-0.792628
-0.787123
-0.781552
-0.775915
-0.770214
-0.764451
-0.758625
-0.752738
-0.74679
-0.740783
-0.734718
-0.728594
-0.722413
-0.716176
-0.709882
-0.703532
-0.697127
-0.690668
-0.684153
-0.677584
-0.670961
-0.664283
-0.657551
-0.650765
-0.643924
-0.637029
-0.630079
-0.623073
-0.616013
-0.608897
-0.601725
-0.594497
-0.587213
-0.579872
-0.572473
-0.565017
-0.557504
-0.549932
-0.542301
-0.534611
-0.526862
-0.519053
-0.511184
-0.503253
-0.495262
-0.487209
-0.479095
-0.470918
-0.462679
-0.454376
-0.446011
-0.437582
-0.429091
-0.420536
-0.411918
-0.403239
-0.394498
-0.385699
-0.376842
-0.367934
-0.358977
-0.349991
-0.34095
-0.332009
-1.38254
-1.38265
-1.3828
-1.38305
-1.38345
-1.38406
-1.38493
-1.3861
-1.38761
-1.38951
-1.39185
-1.39467
-1.39803
-1.40199
-1.40662
-1.41196
-1.41807
-1.42499
-1.43276
-1.44139
-1.45089
-1.46124
-1.4724
-1.48433
-1.49693
-1.51011
-1.52374
-1.53765
-1.55166
-1.56557
-1.57913
-1.5921
-1.60422
-1.61525
-1.62492
-1.63301
-1.63934
-1.64373
-1.64606
-1.64626
-1.64428
-1.64015
-1.63388
-1.62551
-1.61507
-1.60259
-1.58808
-1.5715
-1.5528
-1.53189
-1.50874
-1.48333
-1.45577
-1.42627
-1.39519
-1.36302
-1.3303
-1.29766
-1.26565
-1.23481
-1.20556
-1.17819
-1.15289
-1.12974
-1.10873
-1.08978
-1.07276
-1.05752
-1.0439
-1.03171
-1.02079
-1.01099
-1.00216
-0.994155
-0.986872
-0.980203
-0.974056
-0.968352
-0.963021
-0.958003
-0.953245
-0.948703
-0.944337
-0.940112
-0.936
-0.931975
-0.928013
-0.924097
-0.920207
-0.91633
-0.912452
-0.908562
-0.904649
-0.900704
-0.896721
-0.892691
-0.888611
-0.884474
-0.880277
-0.876016
-0.871689
-0.867292
-0.862826
-0.858287
-0.853676
-0.848992
-0.844235
-0.839405
-0.834502
-0.829527
-0.824481
-0.819363
-0.814176
-0.80892
-0.803596
-0.798205
-0.792747
-0.787224
-0.781637
-0.775987
-0.770274
-0.764499
-0.758664
-0.752769
-0.746815
-0.740802
-0.734731
-0.728603
-0.722419
-0.716178
-0.709882
-0.703531
-0.697125
-0.690664
-0.684149
-0.677579
-0.670955
-0.664278
-0.657546
-0.650759
-0.643919
-0.637024
-0.630074
-0.623069
-0.616009
-0.608893
-0.601722
-0.594494
-0.58721
-0.57987
-0.572472
-0.565016
-0.557503
-0.549932
-0.542302
-0.534613
-0.526864
-0.519056
-0.511187
-0.503258
-0.495268
-0.487217
-0.479104
-0.470929
-0.462692
-0.454392
-0.44603
-0.437605
-0.429117
-0.420568
-0.411957
-0.403285
-0.394553
-0.385764
-0.37692
-0.368027
-0.359087
-0.350118
-0.341104
-0.332158
-1.3852
-1.38518
-1.38522
-1.38539
-1.38574
-1.38632
-1.38718
-1.38837
-1.38991
-1.39185
-1.39424
-1.39713
-1.40056
-1.4046
-1.40931
-1.41473
-1.42093
-1.42795
-1.43581
-1.44455
-1.45416
-1.46464
-1.47594
-1.48801
-1.50076
-1.5141
-1.52789
-1.54195
-1.55611
-1.57015
-1.58383
-1.5969
-1.6091
-1.62019
-1.6299
-1.63803
-1.64437
-1.64877
-1.65112
-1.65136
-1.64947
-1.64546
-1.63936
-1.63124
-1.62113
-1.60907
-1.59506
-1.57906
-1.56097
-1.5407
-1.51814
-1.49325
-1.46607
-1.4368
-1.40577
-1.37349
-1.34054
-1.30755
-1.27515
-1.2439
-1.21423
-1.18647
-1.1608
-1.13732
-1.116
-1.09676
-1.07947
-1.06397
-1.05009
-1.03765
-1.02649
-1.01643
-1.00735
-0.999106
-0.991582
-0.984676
-0.978298
-0.972368
-0.966818
-0.961589
-0.956628
-0.95189
-0.947336
-0.942932
-0.938649
-0.93446
-0.930343
-0.926278
-0.922247
-0.918236
-0.914231
-0.91022
-0.906193
-0.90214
-0.898054
-0.893928
-0.889755
-0.885531
-0.881251
-0.876912
-0.872511
-0.868046
-0.863514
-0.858914
-0.854246
-0.849508
-0.844701
-0.839824
-0.834877
-0.829862
-0.824779
-0.819627
-0.814409
-0.809124
-0.803774
-0.798359
-0.792881
-0.787339
-0.781735
-0.776069
-0.770343
-0.764557
-0.758712
-0.752807
-0.746845
-0.740826
-0.734749
-0.728617
-0.722428
-0.716184
-0.709886
-0.703532
-0.697124
-0.690662
-0.684145
-0.677575
-0.670951
-0.664273
-0.657541
-0.650754
-0.643914
-0.637019
-0.630069
-0.623065
-0.616005
-0.60889
-0.601719
-0.594492
-0.587208
-0.579868
-0.57247
-0.565016
-0.557503
-0.549932
-0.542303
-0.534614
-0.526866
-0.519059
-0.511191
-0.503263
-0.495274
-0.487224
-0.479113
-0.47094
-0.462705
-0.454408
-0.446048
-0.437627
-0.429144
-0.4206
-0.411995
-0.40333
-0.394607
-0.385828
-0.376997
-0.368117
-0.359194
-0.350242
-0.341251
-0.332305
-1.38765
-1.38752
-1.38744
-1.38752
-1.3878
-1.38831
-1.38912
-1.39025
-1.39176
-1.39367
-1.39604
-1.3989
-1.40232
-1.40633
-1.41101
-1.4164
-1.42255
-1.42952
-1.43733
-1.44601
-1.45555
-1.46595
-1.47718
-1.48917
-1.50184
-1.51509
-1.52878
-1.54275
-1.55681
-1.57074
-1.58431
-1.59727
-1.60936
-1.62034
-1.62996
-1.63801
-1.6443
-1.64869
-1.65108
-1.6514
-1.64964
-1.64583
-1.64
-1.63221
-1.62253
-1.61099
-1.59757
-1.58222
-1.56483
-1.54526
-1.52337
-1.49908
-1.47241
-1.44352
-1.41278
-1.38066
-1.34778
-1.31482
-1.2824
-1.2511
-1.22137
-1.19354
-1.16781
-1.14424