/*--------------------------------*- C++ -*----------------------------------*\
  =========                 |
  \\      /  F ield         | OpenFOAM: The Open Source CFD Toolbox
   \\    /   O peration     | Website:  https://openfoam.org
    \\  /    A nd           | Version:  8
     \\/     M anipulation  |
\*---------------------------------------------------------------------------*/
FoamFile
{
    version     2.0;
    format      ascii;
    class       surfaceScalarField;
    location    "0.2";
    object      phi;
}
// * * * * * * * * * * * * * * * * * * * * * * * * * * * * * * * * * * * * * //

dimensions      [0 3 -1 0 0 0 0];

internalField   nonuniform List<scalar> 
24170
(
9.18082e-08
1.47322e-07
4.30584e-08
4.87498e-08
3.07223e-08
1.23361e-08
2.5852e-08
4.87026e-09
2.27649e-08
3.0871e-09
2.04622e-08
2.30275e-09
1.87518e-08
1.71038e-09
1.74386e-08
1.31317e-09
1.63859e-08
1.05277e-09
1.55183e-08
8.67614e-10
1.47875e-08
7.3071e-10
1.41587e-08
6.2886e-10
1.36063e-08
5.52416e-10
1.31127e-08
4.93546e-10
1.26779e-08
4.34788e-10
1.23443e-08
3.33651e-10
1.24994e-08
-1.55167e-10
-3.11457e-09
1.5614e-08
2.00832e-07
2.02784e-07
1.35953e-07
1.13629e-07
1.02856e-07
4.54332e-08
8.57058e-08
2.20206e-08
7.55712e-08
1.32216e-08
6.84398e-08
9.43422e-09
6.3061e-08
7.0892e-09
5.88963e-08
5.47783e-09
5.55686e-08
4.38045e-09
5.28365e-08
3.59978e-09
5.05454e-08
3.02174e-09
4.85872e-08
2.58708e-09
4.68827e-08
2.25689e-09
4.53763e-08
1.99994e-09
4.40386e-08
1.77254e-09
4.29052e-08
1.46701e-09
4.21129e-08
6.37151e-10
-2.44928e-09
4.14476e-08
2.72546e-07
2.04926e-07
2.25377e-07
1.60798e-07
1.84281e-07
8.6529e-08
1.5652e-07
4.9781e-08
1.387e-07
3.10424e-08
1.26339e-07
2.17953e-08
1.17022e-07
1.6406e-08
1.09745e-07
1.27552e-08
1.03913e-07
1.02117e-08
9.91268e-08
8.38627e-09
9.51192e-08
7.02929e-09
9.17057e-08
6.00065e-09
8.87508e-08
5.2117e-09
8.61562e-08
4.59457e-09
8.38517e-08
4.07702e-09
8.1804e-08
3.51477e-09
7.98445e-08
2.59667e-09
2.45182e-10
7.715e-08
3.19393e-07
1.79938e-07
2.98581e-07
1.8161e-07
2.64225e-07
1.20886e-07
2.33325e-07
8.06801e-08
2.09961e-07
5.44066e-08
1.92881e-07
3.88757e-08
1.79843e-07
2.94438e-08
1.69533e-07
2.3065e-08
1.61197e-07
1.85483e-08
1.5432e-07
1.52631e-08
1.48547e-07
1.28016e-08
1.43629e-07
1.09195e-08
1.39378e-07
9.46274e-09
1.35654e-07
8.31822e-09
1.32344e-07
7.38668e-09
1.29335e-07
6.52411e-09
1.26353e-07
5.5781e-09
4.00733e-09
1.22591e-07
3.49712e-07
1.4576e-07
3.51767e-07
1.79555e-07
3.32567e-07
1.40086e-07
3.07446e-07
1.05801e-07
2.83879e-07
7.79735e-08
2.64557e-07
5.81974e-08
2.4904e-07
4.49616e-08
2.36418e-07
3.56863e-08
2.26018e-07
2.89485e-08
2.17331e-07
2.395e-08
2.09977e-07
2.01554e-08
2.03676e-07
1.72211e-08
1.98213e-07
1.4926e-08
1.93419e-07
1.31121e-08
1.89148e-07
1.1657e-08
1.85241e-07
1.04319e-08
1.81429e-07
9.39001e-09
8.30925e-09
1.77127e-07
3.7135e-07
1.12592e-07
3.87754e-07
1.63151e-07
3.84366e-07
1.43474e-07
3.70617e-07
1.1955e-07
3.52807e-07
9.57838e-08
3.35417e-07
7.55874e-08
3.20019e-07
6.0359e-08
3.0675e-07
4.89561e-08
2.95399e-07
4.02993e-08
2.85677e-07
3.36714e-08
2.77302e-07
2.85311e-08
2.70032e-07
2.44912e-08
2.63669e-07
2.12882e-08
2.58048e-07
1.87335e-08
2.53015e-07
1.66904e-08
2.48402e-07
1.50444e-08
2.43994e-07
1.37983e-08
1.28576e-08
2.39445e-07
3.90268e-07
8.4778e-08
4.12812e-07
1.40607e-07
4.20894e-07
1.35392e-07
4.18977e-07
1.21467e-07
4.10345e-07
1.04415e-07
3.98785e-07
8.71482e-08
3.86736e-07
7.24078e-08
3.75255e-07
6.04372e-08
3.64756e-07
5.0798e-08
3.55344e-07
4.30835e-08
3.46967e-07
3.69077e-08
3.39519e-07
3.1939e-08
3.32881e-07
2.79263e-08
3.26933e-07
2.46819e-08
3.21552e-07
2.20714e-08
3.16603e-07
1.99933e-08
3.11937e-07
1.8464e-08
1.74009e-08
3.07394e-07
4.10079e-07
6.31679e-08
4.33273e-07
1.17412e-07
4.47317e-07
1.21348e-07
4.54047e-07
1.14737e-07
4.5437e-07
1.04093e-07
4.50298e-07
9.12193e-08
4.43899e-07
7.88073e-08
4.36481e-07
6.78555e-08
4.28825e-07
5.84537e-08
4.21379e-07
5.05297e-08
4.14358e-07
4.39281e-08
4.07844e-07
3.84529e-08
4.01846e-07
3.39242e-08
3.96334e-07
3.01939e-08
3.91253e-07
2.71527e-08
3.8653e-07
2.47161e-08
3.82094e-07
2.29003e-08
2.15931e-08
3.77902e-07
4.32491e-07
4.7027e-08
4.53625e-07
9.62782e-08
4.69451e-07
1.05522e-07
4.80707e-07
1.03481e-07
4.87315e-07
9.74849e-08
4.89818e-07
8.87165e-08
4.89399e-07
7.92259e-08
4.87062e-07
7.01926e-08
4.83549e-07
6.19664e-08
4.79407e-07
5.46725e-08
4.74999e-07
4.83352e-08
4.70554e-07
4.28987e-08
4.66201e-07
3.82773e-08
4.62009e-07
3.43854e-08
4.58008e-07
3.11543e-08
4.542e-07
2.85235e-08
4.50592e-07
2.65082e-08
2.49732e-08
4.47212e-07
4.58076e-07
3.51843e-08
4.76273e-07
7.80814e-08
4.9163e-07
9.01645e-08
5.0427e-07
9.08411e-08
5.14049e-07
8.77056e-08
5.20805e-07
8.1961e-08
5.25e-07
7.50309e-08
5.27193e-07
6.79993e-08
5.27866e-07
6.12935e-08
5.27441e-07
5.50981e-08
5.26262e-07
4.95143e-08
5.24588e-07
4.45723e-08
5.22606e-07
4.0259e-08
5.20448e-07
3.65437e-08
5.18205e-07
3.33972e-08
5.15945e-07
3.07837e-08
5.13735e-07
2.87177e-08
2.70676e-08
5.11641e-07
4.86908e-07
2.65369e-08
5.02176e-07
6.28136e-08
5.16231e-07
7.61096e-08
5.28602e-07
7.84704e-08
5.39312e-07
7.69952e-08
5.48048e-07
7.32247e-08
5.54905e-07
6.81739e-08
5.60142e-07
6.27627e-08
5.63998e-07
5.74375e-08
5.66709e-07
5.23868e-08
5.68505e-07
4.77187e-08
5.69585e-07
4.34914e-08
5.70119e-07
3.97254e-08
5.70242e-07
3.64206e-08
5.70069e-07
3.35708e-08
5.69695e-07
3.11576e-08
5.69221e-07
2.91913e-08
2.75672e-08
5.68721e-07
4.36143e-07
2.09568e-08
4.46987e-07
5.19693e-08
4.57711e-07
6.53861e-08
4.67547e-07
6.86338e-08
4.76476e-07
6.80662e-08
4.84277e-07
6.54242e-08
4.90933e-07
6.15176e-08
4.96557e-07
5.71387e-08
5.01254e-07
5.27402e-08
5.05127e-07
4.85144e-08
5.08284e-07
4.4561e-08
5.10837e-07
4.09385e-08
5.12887e-07
3.76752e-08
5.14528e-07
3.47801e-08
5.15845e-07
3.2254e-08
5.16917e-07
3.0085e-08
5.1783e-07
2.82783e-08
2.67572e-08
5.1864e-07
5.29748e-07
1.60701e-08
5.40196e-07
4.15218e-08
5.51262e-07
5.43197e-08
5.61711e-07
5.81848e-08
5.71472e-07
5.8305e-08
5.80331e-07
5.65655e-08
5.88217e-07
5.3632e-08
5.95207e-07
5.0148e-08
6.01385e-07
4.65626e-08
6.06816e-07
4.30831e-08
6.11573e-07
3.98045e-08
6.15731e-07
3.67803e-08
6.19368e-07
3.40384e-08
6.22559e-07
3.15889e-08
6.25381e-07
2.9432e-08
6.27909e-07
2.75572e-08
6.30229e-07
2.59587e-08
2.45871e-08
6.32399e-07
6.43971e-07
1.19131e-08
6.53712e-07
3.17806e-08
6.64891e-07
4.31405e-08
6.75813e-07
4.72627e-08
6.86244e-07
4.78746e-08
6.95976e-07
4.6833e-08
7.04879e-07
4.47293e-08
7.12983e-07
4.20434e-08
7.20364e-07
3.91824e-08
7.2708e-07
3.63671e-08
7.33188e-07
3.3696e-08
7.38749e-07
3.12191e-08
7.43825e-07
2.89628e-08
7.48477e-07
2.69366e-08
7.52771e-07
2.51385e-08
7.5677e-07
2.35574e-08
7.6055e-07
2.21792e-08
2.09778e-08
7.64159e-07
7.83461e-07
8.39325e-09
7.92346e-07
2.28963e-08
8.03423e-07
3.20629e-08
8.14753e-07
3.59332e-08
8.25819e-07
3.68078e-08
8.36388e-07
3.62642e-08
8.46271e-07
3.48469e-08
8.55425e-07
3.28887e-08
8.63898e-07
3.07103e-08
8.71744e-07
2.8521e-08
8.79019e-07
2.64207e-08
8.85781e-07
2.44566e-08
8.92091e-07
2.26532e-08
8.98008e-07
2.102e-08
9.03592e-07
1.95546e-08
9.08902e-07
1.8247e-08
9.14e-07
1.70807e-08
1.60425e-08
9.18936e-07
9.53806e-07
5.34693e-09
9.61919e-07
1.47833e-08
9.72818e-07
2.11637e-08
9.84582e-07
2.41689e-08
9.96397e-07
2.49925e-08
1.00793e-06
2.47346e-08
1.01893e-06
2.38411e-08
1.02929e-06
2.25272e-08
1.039e-06
2.10045e-08
1.04808e-06
1.94361e-08
1.0566e-06
1.79085e-08
1.06459e-06
1.64614e-08
1.07213e-06
1.51146e-08
1.07927e-06
1.38766e-08
1.08608e-06
1.27461e-08
1.09261e-06
1.17152e-08
1.09892e-06
1.07706e-08
9.90536e-09
1.10506e-06
1.16178e-06
2.55531e-09
1.16949e-06
7.07187e-09
1.18046e-06
1.01972e-08
1.19291e-06
1.1717e-08
1.20579e-06
1.2109e-08
1.21861e-06
1.1915e-08
1.23107e-06
1.13821e-08
1.24298e-06
1.0616e-08
1.25427e-06
9.71883e-09
1.26493e-06
8.77983e-09
1.27498e-06
7.85068e-09
1.28449e-06
6.95514e-09
1.2935e-06
6.1045e-09
1.30207e-06
5.30348e-09
1.31027e-06
4.55131e-09
1.31814e-06
3.84343e-09
1.32574e-06
3.17156e-09
2.53453e-09
1.33311e-06
1.41568e-06
-2.97452e-10
1.42379e-06
-1.04194e-09
1.43571e-06
-1.72155e-09
1.44966e-06
-2.23554e-09
1.46438e-06
-2.60847e-09
1.4792e-06
-2.90676e-09
1.49376e-06
-3.17787e-09
1.50782e-06
-3.44074e-09
1.52124e-06
-3.70139e-09
1.53398e-06
-3.96307e-09
1.54606e-06
-4.22793e-09
1.55751e-06
-4.49694e-09
1.56839e-06
-4.77056e-09
1.57874e-06
-5.04945e-09
1.58862e-06
-5.3348e-09
1.5981e-06
-5.6278e-09
1.6072e-06
-5.93092e-09
-6.23876e-09
1.61597e-06
1.72585e-06
-3.89294e-09
1.7362e-06
-1.14006e-08
1.75133e-06
-1.68511e-08
1.76887e-06
-1.9769e-08
1.78723e-06
-2.09674e-08
1.80564e-06
-2.13214e-08
1.82368e-06
-2.12214e-08
1.84107e-06
-2.08243e-08
1.85764e-06
-2.02689e-08
1.87334e-06
-1.96717e-08
1.88821e-06
-1.90966e-08
1.90229e-06
-1.85706e-08
1.91562e-06
-1.81059e-08
1.92828e-06
-1.77081e-08
1.94032e-06
-1.7378e-08
1.95181e-06
-1.71126e-08
1.96279e-06
-1.69082e-08
-1.6752e-08
1.9733e-06
1.26453e-06
-7.61867e-09
1.2747e-06
-2.15713e-08
1.28861e-06
-3.07605e-08
1.3038e-06
-3.49635e-08
1.31912e-06
-3.628e-08
1.33411e-06
-3.63173e-08
1.34852e-06
-3.5634e-08
1.36219e-06
-3.44867e-08
1.37505e-06
-3.31355e-08
1.38715e-06
-3.1768e-08
1.39852e-06
-3.04708e-08
1.40923e-06
-2.92771e-08
1.41933e-06
-2.82008e-08
1.42886e-06
-2.72459e-08
1.43789e-06
-2.64088e-08
1.44646e-06
-2.56807e-08
1.4546e-06
-2.50513e-08
-2.45033e-08
1.46236e-06
1.1025e-06
-1.25233e-08
1.11532e-06
-3.43982e-08
1.13141e-06
-4.68473e-08
1.14771e-06
-5.12673e-08
1.16348e-06
-5.20432e-08
1.17853e-06
-5.13704e-08
1.19268e-06
-4.97816e-08
1.20585e-06
-4.76547e-08
1.21809e-06
-4.53756e-08
1.22948e-06
-4.31581e-08
1.24008e-06
-4.10788e-08
1.24997e-06
-3.91649e-08
1.2592e-06
-3.74277e-08
1.26782e-06
-3.58665e-08
1.27588e-06
-3.44717e-08
1.28343e-06
-3.32299e-08
1.29051e-06
-3.21248e-08
-3.11427e-08
1.29715e-06
9.62628e-07
-1.96409e-08
9.79681e-07
-5.14513e-08
9.98751e-07
-6.59173e-08
1.01667e-06
-6.91902e-08
1.03344e-06
-6.88121e-08
1.04902e-06
-6.69515e-08
1.06322e-06
-6.39819e-08
1.07606e-06
-6.04929e-08
1.08765e-06
-5.69677e-08
1.0981e-06
-5.36003e-08
1.10747e-06
-5.04523e-08
1.11586e-06
-4.75548e-08
1.12335e-06
-4.49201e-08
1.13003e-06
-4.25436e-08
1.13597e-06
-4.04099e-08
1.14124e-06
-3.85008e-08
1.14591e-06
-3.67917e-08
-3.52783e-08
1.15004e-06
8.42835e-07
-3.06557e-08
8.6577e-07
-7.43871e-08
8.88286e-07
-8.84326e-08
9.08152e-07
-8.90565e-08
9.25988e-07
-8.66485e-08
9.41505e-07
-8.24678e-08
9.54516e-07
-7.69931e-08
9.65226e-07
-7.12027e-08
9.739e-07
-6.56418e-08
9.80776e-07
-6.04767e-08
9.86092e-07
-5.57688e-08
9.90081e-07
-5.15434e-08
9.9295e-07
-4.77895e-08
9.9488e-07
-4.44733e-08
9.96022e-07
-4.15518e-08
9.96504e-07
-3.8983e-08
9.96432e-07
-3.67191e-08
-3.47497e-08
9.95903e-07
7.41694e-07
-4.82088e-08
7.719e-07
-1.04593e-07
7.97424e-07
-1.13957e-07
8.17854e-07
-1.09487e-07
8.33754e-07
-1.02548e-07
8.4476e-07
-9.3474e-08
8.51421e-07
-8.36545e-08
8.54678e-07
-7.44594e-08
8.55331e-07
-6.62942e-08
8.5403e-07
-5.91758e-08
8.51312e-07
-5.30511e-08
8.47594e-07
-4.78251e-08
8.43182e-07
-4.33777e-08
8.38299e-07
-3.95904e-08
8.33105e-07
-3.63581e-08
8.27714e-07
-3.35917e-08
8.22206e-07
-3.12114e-08
-2.91799e-08
8.16637e-07
6.57966e-07
-7.57739e-08
6.94665e-07
-1.41291e-07
7.18813e-07
-1.38106e-07
7.32752e-07
-1.23425e-07
7.37841e-07
-1.07637e-07
7.35748e-07
-9.13815e-08
7.29071e-07
-7.69771e-08
7.19826e-07
-6.52142e-08
7.09269e-07
-5.57372e-08
6.98197e-07
-4.81045e-08
6.87104e-07
-4.19577e-08
6.76263e-07
-3.69839e-08
6.65811e-07
-3.29257e-08
6.55806e-07
-2.95857e-08
6.46262e-07
-2.68144e-08
6.37166e-07
-2.44956e-08
6.28494e-07
-2.25398e-08
-2.08888e-08
6.20203e-07
5.88787e-07
-1.15765e-07
6.23784e-07
-1.76287e-07
6.34058e-07
-1.48379e-07
6.28676e-07
-1.18044e-07
6.13397e-07
-9.23576e-08
5.93652e-07
-7.16363e-08
5.73266e-07
-5.65916e-08
5.5388e-07
-4.58283e-08
5.36029e-07
-3.78859e-08
5.19824e-07
-3.19e-08
5.05182e-07
-2.73148e-08
4.91933e-07
-2.37354e-08
4.79898e-07
-2.0891e-08
4.68911e-07
-1.85981e-08
4.58823e-07
-1.6727e-08
4.49509e-07
-1.5181e-08
4.40862e-07
-1.38925e-08
-1.28047e-08
4.32777e-07
5.25169e-07
-1.63178e-07
5.38046e-07
-1.89165e-07
5.1849e-07
-1.28823e-07
4.87059e-07
-8.66119e-08
4.5394e-07
-5.92395e-08
4.24523e-07
-4.22193e-08
3.99917e-07
-3.19848e-08
3.79373e-07
-2.5285e-08
3.62033e-07
-2.05458e-08
3.47221e-07
-1.70881e-08
3.34407e-07
-1.45006e-08
3.23182e-07
-1.25107e-08
3.13239e-07
-1.09475e-08
3.0434e-07
-9.69958e-09
2.96303e-07
-8.68965e-09
2.88982e-07
-7.8598e-09
2.82262e-07
-7.17313e-09
-6.5873e-09
2.76045e-07
4.4761e-07
-1.94879e-07
4.14274e-07
-1.55829e-07
3.63729e-07
-7.82781e-08
3.19113e-07
-4.19968e-08
2.85156e-07
-2.52817e-08
2.60389e-07
-1.74526e-08
2.41616e-07
-1.32116e-08
2.26697e-07
-1.0366e-08
2.14499e-07
-8.3477e-09
2.04314e-07
-6.90313e-09
1.95648e-07
-5.83443e-09
1.88153e-07
-5.01642e-09
1.81583e-07
-4.37667e-09
1.75751e-07
-3.8684e-09
1.70521e-07
-3.45882e-09
1.65783e-07
-3.12264e-09
1.61457e-07
-2.84669e-09
-2.60469e-09
1.57474e-07
3.30711e-07
-1.63519e-07
2.49709e-07
-7.48271e-08
1.94779e-07
-2.33484e-08
1.62065e-07
-9.28287e-09
1.42124e-07
-5.34068e-09
1.28592e-07
-3.92002e-09
1.18386e-07
-3.00606e-09
1.10348e-07
-2.32781e-09
1.03861e-07
-1.86098e-09
9.84943e-08
-1.53597e-09
9.39557e-08
-1.29583e-09
9.00508e-08
-1.11161e-09
8.6642e-08
-9.67843e-10
8.36276e-08
-8.5398e-10
8.09313e-08
-7.62525e-10
7.84958e-08
-6.87117e-10
7.62758e-08
-6.26667e-10
-5.6957e-10
7.42406e-08
1.51682e-07
7.68546e-08
5.35062e-08
4.42234e-08
3.88827e-08
3.49626e-08
3.19566e-08
2.96288e-08
2.77678e-08
2.62318e-08
2.4936e-08
2.38244e-08
2.28565e-08
2.20026e-08
2.124e-08
2.05529e-08
1.99263e-08
1.93567e-08
5.29814e-10
-5.29814e-10
1.66288e-09
-1.13307e-09
3.04617e-09
-1.38328e-09
4.44564e-09
-1.39948e-09
5.73309e-09
-1.28745e-09
6.85078e-09
-1.11769e-09
7.78214e-09
-9.31354e-10
8.52939e-09
-7.47256e-10
9.09796e-09
-5.68569e-10
9.4872e-09
-3.89241e-10
9.68813e-09
-2.00922e-10
9.68159e-09
6.53583e-12
9.44121e-09
2.40378e-10
8.9344e-09
5.06811e-10
8.12484e-09
8.09563e-10
6.97366e-09
1.15118e-09
5.44017e-09
1.53349e-09
3.48214e-09
1.95803e-09
1.05559e-09
2.42655e-09
-1.88528e-09
2.94088e-09
-5.38746e-09
3.50218e-09
-9.49841e-09
4.11095e-09
-1.42656e-08
4.76714e-09
-1.9735e-08
5.46943e-09
-2.59498e-08
6.2148e-09
-3.29479e-08
6.99813e-09
-4.07598e-08
7.8119e-09
-4.94057e-08
8.64588e-09
-5.88926e-08
9.48695e-09
-6.92117e-08
1.03191e-08
-8.03353e-08
1.11236e-08
-9.22145e-08
1.18791e-08
-1.04777e-07
1.25628e-08
-1.17927e-07
1.31502e-08
-1.31544e-07
1.3617e-08
-1.45484e-07
1.39396e-08
-1.5958e-07
1.40962e-08
-1.73648e-07
1.40682e-08
-1.87489e-07
1.38406e-08
-2.00892e-07
1.34033e-08
-2.13644e-07
1.27516e-08
-2.2553e-07
1.18862e-08
-2.36344e-07
1.08138e-08
-2.45891e-07
9.54682e-09
-2.53994e-07
8.1031e-09
-2.60499e-07
6.50495e-09
-2.65277e-07
4.77797e-09
-2.68225e-07
2.94793e-09
-2.69269e-07
1.04447e-09
-2.68384e-07
-8.8493e-10
-2.65589e-07
-2.79532e-09
-2.60937e-07
-4.65185e-09
-2.54515e-07
-6.42156e-09
-2.46442e-07
-8.07308e-09
-2.36864e-07
-9.57788e-09
-2.25953e-07
-1.09113e-08
-2.139e-07
-1.20535e-08
-2.0091e-07
-1.29901e-08
-1.87197e-07
-1.37123e-08
-1.72979e-07
-1.42178e-08
-1.58469e-07
-1.451e-08
-1.43871e-07
-1.4598e-08
-1.29376e-07
-1.44957e-08
-1.15154e-07
-1.42213e-08
-1.01359e-07
-1.37959e-08
-8.81157e-08
-1.32428e-08
-7.55296e-08
-1.25862e-08
-6.36794e-08
-1.18502e-08
-5.26212e-08
-1.10581e-08
-4.23896e-08
-1.02317e-08
-3.29989e-08
-9.3907e-09
-2.44468e-08
-8.55205e-09
-1.67165e-08
-7.73031e-09
-9.78153e-09
-6.93498e-09
-3.61065e-09
-6.17088e-09
1.83687e-09
-5.44752e-09
6.60741e-09
-4.77054e-09
1.07504e-08
-4.14302e-09
1.43162e-08
-3.56581e-09
1.7355e-08
-3.03871e-09
1.99155e-08
-2.56055e-09
2.20449e-08
-2.12939e-09
2.37877e-08
-1.74279e-09
2.51857e-08
-1.39798e-09
2.62776e-08
-1.09198e-09
2.70994e-08
-8.21761e-10
2.76838e-08
-5.84382e-10
2.80609e-08
-3.77103e-10
2.82578e-08
-1.96946e-10
2.82951e-08
-3.72795e-11
2.82014e-08
9.36607e-11
2.79933e-08
2.08182e-10
2.76883e-08
3.0492e-10
2.73027e-08
3.85679e-10
2.68505e-08
4.5218e-10
2.63445e-08
5.05964e-10
2.57961e-08
5.48399e-10
2.52154e-08
5.80736e-10
2.46113e-08
6.04105e-10
2.39917e-08
6.19538e-10
2.33638e-08
6.27969e-10
2.27335e-08
6.30256e-10
2.21063e-08
6.27178e-10
2.14869e-08
6.19458e-10
2.08791e-08
6.07756e-10
2.02864e-08
5.92686e-10
1.97116e-08
5.74816e-10
1.91569e-08
5.54668e-10
1.86242e-08
5.32726e-10
1.81148e-08
5.09431e-10
1.76296e-08
4.85184e-10
1.71692e-08
4.60348e-10
1.6734e-08
4.35244e-10
1.63238e-08
4.10158e-10
1.59385e-08
3.85336e-10
1.55775e-08
3.60991e-10
1.52402e-08
3.37301e-10
1.49258e-08
3.14414e-10
1.46334e-08
2.92445e-10
1.43619e-08
2.71486e-10
1.41103e-08
2.51596e-10
1.38775e-08
2.32816e-10
1.36623e-08
2.15163e-10
1.34637e-08
1.9864e-10
1.32804e-08
1.83235e-10
1.31115e-08
1.68927e-10
1.29558e-08
1.5569e-10
1.28123e-08
1.43487e-10
1.268e-08
1.3228e-10
1.2558e-08
1.22026e-10
1.24453e-08
1.12676e-10
1.23412e-08
1.04181e-10
1.22447e-08
9.64874e-11
1.21551e-08
8.9545e-11
1.20718e-08
8.33016e-11
1.19941e-08
7.77079e-11
1.19214e-08
7.27155e-11
1.18531e-08
6.82814e-11
1.17888e-08
6.43616e-11
1.17278e-08
6.09163e-11
1.16699e-08
5.79064e-11
1.16146e-08
5.52926e-11
1.15616e-08
5.30378e-11
1.15105e-08
5.11042e-11
1.1461e-08
4.94587e-11
1.1413e-08
4.80709e-11
1.13661e-08
4.69163e-11
1.13201e-08
4.5975e-11
1.12748e-08
4.52321e-11
1.12302e-08
4.46763e-11
1.11859e-08
4.42996e-11
1.11418e-08
4.40986e-11
1.10977e-08
4.40723e-11
1.10535e-08
4.42231e-11
1.10089e-08
4.45585e-11
1.09638e-08
4.50904e-11
1.0918e-08
4.58372e-11
1.08712e-08
4.68233e-11
1.08231e-08
4.80822e-11
1.07734e-08
4.96571e-11
1.07218e-08
5.16038e-11
1.06678e-08
5.39917e-11
1.06109e-08
5.69092e-11
1.05505e-08
6.0465e-11
1.04857e-08
6.47959e-11
1.04156e-08
7.00713e-11
1.03391e-08
7.65008e-11
1.02547e-08
8.43469e-11
1.01608e-08
9.39353e-11
1.00551e-08
1.05675e-10
9.93506e-09
1.20075e-10
9.79726e-09
1.37801e-10
9.63763e-09
1.59625e-10
9.45074e-09
1.86897e-10
9.2306e-09
2.20133e-10
8.9647e-09
2.65902e-10
8.65388e-09
3.10818e-10
8.20213e-09
4.51753e-10
7.77098e-09
4.31152e-10
1.41645e-09
6.35453e-09
6.75464e-10
-1.20528e-09
1.93535e-09
-2.39296e-09
3.27389e-09
-2.72182e-09
4.39317e-09
-2.51876e-09
5.13151e-09
-2.02579e-09
5.41674e-09
-1.40293e-09
5.22486e-09
-7.39472e-10
4.54951e-09
-7.19015e-11
3.38141e-09
5.99529e-10
1.69733e-09
1.29484e-09
-5.45356e-10
2.04176e-09
-3.40618e-09
2.86736e-09
-6.95939e-09
3.79359e-09
-1.12891e-08
4.83653e-09
-1.64863e-08
6.00677e-09
-2.26458e-08
7.31069e-09
-2.9864e-08
8.75168e-09
-3.82369e-08
1.03309e-08
-4.78576e-08
1.20473e-08
-5.88141e-08
1.38974e-08
-7.11861e-08
1.58742e-08
-8.50414e-08
1.79663e-08
-1.00431e-07
2.0157e-08
-1.17385e-07
2.2423e-08
-1.35904e-07
2.47341e-08
-1.55958e-07
2.70525e-08
-1.7748e-07
2.93333e-08
-2.00359e-07
3.15251e-08
-2.24443e-07
3.35714e-08
-2.49537e-07
3.54126e-08
-2.75401e-07
3.69879e-08
-3.0176e-07
3.82381e-08
-3.28305e-07
3.91079e-08
-3.54704e-07
3.95487e-08
-3.80607e-07
3.952e-08
-4.05659e-07
3.89919e-08
-4.29509e-07
3.79457e-08
-4.51815e-07
3.63747e-08
-4.72259e-07
3.42842e-08
-4.90547e-07
3.16915e-08
-5.0642e-07
2.86247e-08
-5.19656e-07
2.51221e-08
-5.30073e-07
2.12309e-08
-5.37532e-07
1.70056e-08
-5.41935e-07
1.25067e-08
-5.4323e-07
7.79934e-09
-5.41405e-07
2.95328e-09
-5.36508e-07
-1.94946e-09
-5.28636e-07
-6.82752e-09
-5.17904e-07
-1.16166e-08
-5.04448e-07
-1.62511e-08
-4.88435e-07
-2.06656e-08
-4.70059e-07
-2.47973e-08
-4.49544e-07
-2.85882e-08
-4.27135e-07
-3.19863e-08
-4.03099e-07
-3.49475e-08
-3.77716e-07
-3.7437e-08
-3.51275e-07
-3.94305e-08
-3.24072e-07
-4.09153e-08
-2.964e-07
-4.18905e-08
-2.68543e-07
-4.23671e-08
-2.40773e-07
-4.2367e-08
-2.13347e-07
-4.19223e-08
-1.86495e-07
-4.1073e-08
-1.60425e-07
-3.98659e-08
-1.35316e-07
-3.83519e-08
-1.11318e-07
-3.65842e-08
-8.85517e-08
-3.46166e-08
-6.71088e-08
-3.2501e-08
-4.70529e-08
-3.02876e-08
-2.84205e-08
-2.80231e-08
-1.12302e-08
-2.57424e-08
4.51493e-09
-2.34754e-08
1.88362e-08
-2.12562e-08
3.17778e-08
-1.91125e-08
4.33924e-08
-1.70621e-08
5.37412e-08
-1.51194e-08
6.28927e-08
-1.32945e-08
7.09205e-08
-1.15937e-08
7.79013e-08
-1.00195e-08
8.39126e-08
-8.57184e-09
8.90318e-08
-7.24856e-09
9.33346e-08
-6.04565e-09
9.68946e-08
-4.95792e-09
9.97819e-08
-3.97928e-09
1.02063e-07
-3.10315e-09
1.03802e-07
-2.32267e-09
1.05055e-07
-1.63092e-09
1.05879e-07
-1.0209e-09
1.06327e-07
-4.84675e-10
1.06439e-07
-1.88663e-11
1.06265e-07
3.8275e-10
1.05841e-07
7.28777e-10
1.05204e-07
1.02261e-09
1.04387e-07
1.26933e-09
1.03419e-07
1.47344e-09
1.02329e-07
1.63908e-09
1.01139e-07
1.77012e-09
9.98731e-08
1.87015e-09
9.85502e-08
1.94249e-09
9.71879e-08
1.99023e-09
9.5802e-08
2.01621e-09
9.44061e-08
2.02308e-09
9.30122e-08
2.0133e-09
9.16308e-08
1.98916e-09
9.02707e-08
1.95279e-09
8.89394e-08
1.90614e-09
8.7643e-08
1.85105e-09
8.63866e-08
1.78918e-09
8.51739e-08
1.72207e-09
8.4008e-08
1.6511e-09
8.28908e-08
1.57753e-09
8.18236e-08
1.50247e-09
8.08069e-08
1.42691e-09
7.98405e-08
1.35169e-09
7.89239e-08
1.27755e-09
7.80561e-08
1.20511e-09
7.72357e-08
1.13488e-09
7.64608e-08
1.06726e-09
7.57298e-08
1.00258e-09
7.50403e-08
9.41064e-10
7.43902e-08
8.82872e-10
7.37773e-08
8.28094e-10
7.31992e-08
7.76766e-10
7.26535e-08
7.28877e-10
7.21381e-08
6.84378e-10
7.16506e-08
6.43191e-10
7.11888e-08
6.05217e-10
7.07508e-08
5.70338e-10
7.03344e-08
5.38419e-10
6.99378e-08
5.09316e-10
6.95591e-08
4.82878e-10
6.91966e-08
4.58945e-10
6.88488e-08
4.37361e-10
6.85141e-08
4.1797e-10
6.81912e-08
4.00614e-10
6.78788e-08
3.85152e-10
6.75756e-08
3.71437e-10
6.72806e-08
3.59338e-10
6.69928e-08
3.48728e-10
6.67113e-08
3.39487e-10
6.6435e-08
3.31497e-10
6.61634e-08
3.24652e-10
6.58957e-08
3.18844e-10
6.56312e-08
3.1398e-10
6.53693e-08
3.09973e-10
6.51094e-08
3.06749e-10
6.48512e-08
3.04249e-10
6.4594e-08
3.02426e-10
6.43374e-08
3.01243e-10
6.4081e-08
3.00678e-10
6.38244e-08
3.00721e-10
6.35671e-08
3.01368e-10
6.33087e-08
3.0264e-10
6.30487e-08
3.04561e-10
6.27866e-08
3.07182e-10
6.25219e-08
3.10571e-10
6.22539e-08
3.14825e-10
6.19819e-08
3.20068e-10
6.17051e-08
3.26465e-10
6.14224e-08
3.34225e-10
6.11328e-08
3.4361e-10
6.08348e-08
3.54955e-10
6.05266e-08
3.68674e-10
6.02061e-08
3.85288e-10
5.98707e-08
4.05448e-10
5.95172e-08
4.29969e-10
5.91417e-08
4.59874e-10
5.87392e-08
4.96448e-10
5.83035e-08
5.41324e-10
5.78271e-08
5.96571e-10
5.73e-08
6.64884e-10
5.67099e-08
7.49696e-10
5.60407e-08
8.56063e-10
5.52714e-08
9.89426e-10
5.4372e-08
1.16534e-09
5.33009e-08
1.3819e-09
5.19787e-08
1.77398e-09
5.02443e-08
2.16559e-09
3.8364e-09
4.78243e-08
2.79557e-10
-1.48484e-09
4.84041e-10
-2.59744e-09
2.4309e-10
-2.48087e-09
-6.24819e-10
-1.65085e-09
-2.19267e-09
-4.5794e-10
-4.47601e-09
8.80415e-10
-7.4749e-09
2.25942e-09
-1.11956e-08
3.64883e-09
-1.56655e-08
5.06939e-09
-2.09372e-08
6.56657e-09
-2.70875e-08
8.192e-09
-3.42118e-08
9.99169e-09
-4.24189e-08
1.20007e-08
-5.18246e-08
1.42422e-08
-6.25466e-08
1.67287e-08
-7.46996e-08
1.94638e-08
-8.83915e-08
2.24436e-08
-1.03718e-07
2.56574e-08
-1.20758e-07
2.90869e-08
-1.39566e-07
3.27056e-08
-1.60169e-07
3.64775e-08
-1.82559e-07
4.03558e-08
-2.06684e-07
4.42825e-08
-2.3245e-07
4.81883e-08
-2.59709e-07
5.1994e-08
-2.88268e-07
5.56113e-08
-3.17882e-07
5.89467e-08
-3.48261e-07
6.1904e-08
-3.79078e-07
6.43886e-08
-4.09976e-07
6.6311e-08
-4.4058e-07
6.75912e-08
-4.70503e-07
6.81616e-08
-4.99365e-07
6.79696e-08
-5.26796e-07
6.69798e-08
-5.5245e-07
6.51746e-08
-5.76013e-07
6.25542e-08
-5.97203e-07
5.91363e-08
-6.15783e-07
5.49543e-08
-6.31554e-07
5.00557e-08
-6.44363e-07
4.45002e-08
-6.54096e-07
3.83572e-08
-6.60678e-07
3.1704e-08
-6.64071e-07
2.4624e-08
-6.6427e-07
1.72051e-08
-6.61303e-07
9.54004e-09
-6.55229e-07
1.72519e-09
-6.46136e-07
-6.14039e-09
-6.34114e-07
-1.39709e-08
-6.19261e-07
-2.16804e-08
-6.017e-07
-2.91784e-08
-5.81578e-07
-3.63732e-08
-5.59068e-07
-4.31753e-08
-5.34367e-07
-4.94982e-08
-5.07694e-07
-5.52614e-08
-4.79288e-07
-6.03923e-08
-4.49406e-07
-6.48288e-08
-4.18321e-07
-6.8522e-08
-3.86313e-07
-7.14385e-08
-3.53667e-07
-7.35614e-08
-3.20666e-07
-7.48916e-08
-2.87586e-07
-7.5447e-08
-2.54691e-07
-7.52624e-08
-2.22226e-07
-7.43866e-08
-1.90418e-07
-7.2881e-08
-1.59468e-07
-7.08161e-08
-1.29551e-07
-6.82687e-08
-1.00817e-07
-6.53185e-08
-7.33875e-08
-6.20461e-08
-4.73575e-08
-5.8531e-08
-2.28028e-08
-5.48423e-08
2.20608e-10
-5.10464e-08
2.16788e-08
-4.72006e-08
4.15694e-08
-4.3366e-08
5.99036e-08
-3.95904e-08
7.67049e-08
-3.59139e-08
9.20116e-08
-3.23687e-08
1.05872e-07
-2.89802e-08
1.18345e-07
-2.5767e-08
1.29493e-07
-2.2742e-08
1.39386e-07
-1.99127e-08
1.48097e-07
-1.72826e-08
1.557e-07
-1.48513e-08
1.6227e-07
-1.26157e-08
1.67882e-07
-1.05702e-08
1.72611e-07
-8.70777e-09
1.76527e-07
-7.02001e-09
1.79703e-07
-5.49773e-09
1.82203e-07
-4.13131e-09
1.84093e-07
-2.91084e-09
1.85435e-07
-1.82635e-09
1.86284e-07
-8.6861e-10
1.86696e-07
-2.86002e-11
1.86721e-07
7.03312e-10
1.86409e-07
1.33478e-09
1.85803e-07
1.87499e-09
1.84945e-07
2.3313e-09
1.83874e-07
2.71101e-09
1.82623e-07
3.02108e-09
1.81225e-07
3.26808e-09
1.79709e-07
3.45819e-09
1.78102e-07
3.59724e-09
1.76427e-07
3.69075e-09
1.74707e-07
3.74388e-09
1.72958e-07
3.7615e-09
1.71199e-07
3.7482e-09
1.69444e-07
3.70825e-09
1.67704e-07
3.64566e-09
1.65991e-07
3.56414e-09
1.64313e-07
3.46712e-09
1.62678e-07
3.35777e-09
1.6109e-07
3.23895e-09
1.59554e-07
3.11327e-09
1.58073e-07
2.98303e-09
1.5665e-07
2.8503e-09
1.55285e-07
2.71687e-09
1.53978e-07
2.58428e-09
1.52729e-07
2.45385e-09
1.51538e-07
2.32666e-09
1.50401e-07
2.20361e-09
1.49318e-07
2.0854e-09
1.48287e-07
1.97257e-09
1.47304e-07
1.8655e-09
1.46368e-07
1.76444e-09
1.45475e-07
1.66953e-09
1.44623e-07
1.58081e-09
1.43809e-07
1.49823e-09
1.43031e-07
1.42171e-09
1.42285e-07
1.35107e-09
1.41569e-07
1.28614e-09
1.40881e-07
1.22667e-09
1.40218e-07
1.17242e-09
1.39578e-07
1.12313e-09
1.38958e-07
1.07851e-09
1.38357e-07
1.03828e-09
1.37773e-07
1.00215e-09
1.37204e-07
9.69862e-10
1.36648e-07
9.41126e-10
1.36103e-07
9.15691e-10
1.3557e-07
8.93305e-10
1.35045e-07
8.73735e-10
1.34527e-07
8.56759e-10
1.34017e-07
8.42165e-10
1.33511e-07
8.29753e-10
1.33011e-07
8.19335e-10
1.32514e-07
8.10744e-10
1.3202e-07
8.03822e-10
1.31529e-07
7.98437e-10
1.31038e-07
7.94482e-10
1.30549e-07
7.91865e-10
1.3006e-07
7.90521e-10
1.2957e-07
7.90404e-10
1.29079e-07
7.91495e-10
1.28587e-07
7.93801e-10
1.28092e-07
7.97349e-10
1.27594e-07
8.02204e-10
1.27093e-07
8.08466e-10
1.26587e-07
8.16276e-10
1.26076e-07
8.25831e-10
1.25559e-07
8.37389e-10
1.25034e-07
8.51283e-10
1.24501e-07
8.67939e-10
1.23956e-07
8.879e-10
1.23399e-07
9.11848e-10
1.22827e-07
9.40638e-10
1.22237e-07
9.75343e-10
1.21626e-07
1.01731e-09
1.20987e-07
1.06823e-09
1.20317e-07
1.13024e-09
1.19607e-07
1.20603e-09
1.1885e-07
1.29904e-09
1.18033e-07
1.41365e-09
1.17142e-07
1.55558e-09
1.16159e-07
1.73228e-09
1.15061e-07
1.95423e-09
1.13816e-07
2.2349e-09
1.12381e-07
2.59999e-09
1.10689e-07
3.07342e-09
1.0868e-07
3.7834e-09
1.06056e-07
4.78981e-09
6.68534e-09
1.03207e-07
-3.67634e-10
-1.1172e-09
-1.75254e-09
-1.21254e-09
-4.24829e-09
1.48796e-11
-7.83493e-09
1.9358e-09
-1.24431e-08
4.15021e-09
-1.80037e-08
6.44104e-09
-2.44711e-08
8.72683e-09
-3.18403e-08
1.1018e-08
-4.01474e-08
1.33765e-08
-4.94642e-08
1.58834e-08
-5.98876e-08
1.86154e-08
-7.15293e-08
2.16334e-08
-8.45061e-08
2.49775e-08
-9.89316e-08
2.86677e-08
-1.1491e-07
3.27067e-08
-1.32528e-07
3.70817e-08
-1.5185e-07
4.17664e-08
-1.72914e-07
4.67212e-08
-1.9572e-07
5.18929e-08
-2.20229e-07
5.72139e-08
-2.46353e-07
6.26024e-08
-2.7396e-07
6.79627e-08
-3.02865e-07
7.31869e-08
-3.32834e-07
7.81574e-08
-3.63591e-07
8.27509e-08
-3.94822e-07
8.68426e-08
-4.26186e-07
9.0311e-08
-4.57325e-07
9.30431e-08
-4.87876e-07
9.49389e-08
-5.1748e-07
9.59149e-08
-5.45796e-07
9.59077e-08
-5.72509e-07
9.48748e-08
-5.97336e-07
9.27959e-08
-6.20028e-07
8.96723e-08
-6.40379e-07
8.55251e-08
-6.58218e-07
8.03935e-08
-6.73414e-07
7.43324e-08
-6.85869e-07
6.74091e-08
-6.95515e-07
5.97016e-08
-7.02309e-07
5.1295e-08
-7.06233e-07
4.22803e-08
-7.07281e-07
3.27525e-08
-7.05467e-07
2.28095e-08
-7.00814e-07
1.25526e-08
-6.93362e-07
2.08775e-09
-6.83147e-07
-8.48948e-09
-6.70207e-07
-1.90809e-08
-6.54594e-07
-2.95835e-08
-6.36387e-07
-3.98875e-08
-6.15685e-07
-4.98803e-08
-5.92611e-07
-5.94473e-08
-5.67312e-07
-6.84743e-08
-5.39961e-07
-7.6849e-08
-5.10757e-07
-8.44652e-08
-4.79924e-07
-9.12258e-08
-4.47705e-07
-9.70471e-08
-4.14365e-07
-1.01863e-07
-3.80176e-07
-1.05628e-07
-3.45418e-07
-1.08319e-07
-3.10371e-07
-1.09939e-07
-2.75305e-07
-1.10513e-07
-2.40476e-07
-1.10091e-07
-2.06123e-07
-1.0874e-07
-1.72461e-07
-1.06544e-07
-1.39677e-07
-1.036e-07
-1.07934e-07
-1.00011e-07
-7.73685e-08
-9.5884e-08
-4.80883e-08
-9.13264e-08
-2.01823e-08
-8.6437e-08
6.28411e-09
-8.13088e-08
3.12595e-08
-7.60218e-08
5.47264e-08
-7.06675e-08
7.6677e-08
-6.53166e-08
9.71178e-08
-6.00312e-08
1.16068e-07
-5.48638e-08
1.33556e-07
-4.98567e-08
1.49619e-07
-4.50436e-08
1.64302e-07
-4.045e-08
1.77654e-07
-3.60941e-08
1.8973e-07
-3.19879e-08
2.00585e-07
-2.8138e-08
2.1028e-07
-2.45465e-08
2.18877e-07
-2.12121e-08
2.26436e-07
-1.81301e-08
2.33023e-07
-1.52939e-08
2.38698e-07
-1.26951e-08
2.43524e-07
-1.03239e-08
2.47563e-07
-8.17003e-09
2.50874e-07
-6.22237e-09
2.53517e-07
-4.4697e-09
2.5555e-07
-2.9009e-09
2.57026e-07
-1.50494e-09
2.57997e-07
-2.68134e-10
2.58519e-07
8.13709e-10
2.58637e-07
1.75689e-09
2.58399e-07
2.56914e-09
2.57849e-07
3.26064e-09
2.57029e-07
3.84099e-09
2.55978e-07
4.31944e-09
2.54731e-07
4.70496e-09
2.53322e-07
5.00609e-09
2.51782e-07
5.23109e-09
2.50138e-07
5.38784e-09
2.48416e-07
5.48386e-09
2.46637e-07
5.52635e-09
2.44824e-07
5.52211e-09
2.42992e-07
5.47755e-09
2.41157e-07
5.3987e-09
2.39333e-07
5.2912e-09
2.37531e-07
5.16023e-09
2.35759e-07
5.01057e-09
2.34026e-07
4.84656e-09
2.32337e-07
4.67211e-09
2.30696e-07
4.4907e-09
2.29108e-07
4.3054e-09
2.27573e-07
4.11888e-09
2.26094e-07
3.93342e-09
2.24669e-07
3.75096e-09
2.233e-07
3.5731e-09
2.21984e-07
3.40112e-09
2.20721e-07
3.23604e-09
2.19507e-07
3.07864e-09
2.18342e-07
2.92944e-09
2.17223e-07
2.7888e-09
2.16147e-07
2.65692e-09
2.15111e-07
2.53384e-09
2.14114e-07
2.4195e-09
2.13151e-07
2.31376e-09
2.12221e-07
2.21637e-09
2.1132e-07
2.12706e-09
2.10447e-07
2.0455e-09
2.09599e-07
1.97131e-09
2.08773e-07
1.90412e-09
2.07968e-07