/*--------------------------------*- C++ -*----------------------------------*\
  =========                 |
  \\      /  F ield         | OpenFOAM: The Open Source CFD Toolbox
   \\    /   O peration     | Website:  https://openfoam.org
    \\  /    A nd           | Version:  8
     \\/     M anipulation  |
\*---------------------------------------------------------------------------*/
FoamFile
{
    version     2.0;
    format      ascii;
    class       volVectorField;
    location    "0.2";
    object      U;
}
// * * * * * * * * * * * * * * * * * * * * * * * * * * * * * * * * * * * * * //

dimensions      [0 1 -1 0 0 0 0];

internalField   nonuniform List<vector> 
12225
(
(0.320118 0.0427031 0)
(0.190882 0.0109763 0)
(0.112529 0.000766103 0)
(0.0850792 0.000272648 0)
(0.0754262 0.000356312 0)
(0.0674555 0.000288573 0)
(0.0611921 0.000209859 0)
(0.0565493 0.000167758 0)
(0.0529107 0.000143501 0)
(0.0499376 0.000125584 0)
(0.0474565 0.000112641 0)
(0.0453431 0.000104102 0)
(0.0435045 9.88307e-05 0)
(0.0418704 9.64086e-05 0)
(0.0404134 8.97928e-05 0)
(0.0391059 8.17959e-05 0)
(0.0388384 -0.000268685 0)
(0.0375368 -0.00281972 0)
(0.615338 0.11444 0)
(0.488792 0.0570842 0)
(0.343601 0.018203 0)
(0.266619 0.00794299 0)
(0.232993 0.00493396 0)
(0.209664 0.00378385 0)
(0.191554 0.00296194 0)
(0.177836 0.00236989 0)
(0.16708 0.0019751 0)
(0.15833 0.00169436 0)
(0.151056 0.00148519 0)
(0.144893 0.00132955 0)
(0.139575 0.00121442 0)
(0.134899 0.00112724 0)
(0.130758 0.00103752 0)
(0.127005 0.000841929 0)
(0.124522 -5.66191e-07 0)
(0.119785 -0.00404567 0)
(0.738658 0.136624 0)
(0.695364 0.0966277 0)
(0.560038 0.0458994 0)
(0.455398 0.0245277 0)
(0.398096 0.0152895 0)
(0.359934 0.0111965 0)
(0.330913 0.00878611 0)
(0.308613 0.00708909 0)
(0.291025 0.00590171 0)
(0.276719 0.00504864 0)
(0.264834 0.00441121 0)
(0.25479 0.00392904 0)
(0.246161 0.0035641 0)
(0.238626 0.00328321 0)
(0.231983 0.0030341 0)
(0.225946 0.00266649 0)
(0.220983 0.0016907 0)
(0.213566 -0.00186642 0)
(0.777121 0.125785 0)
(0.808965 0.117781 0)
(0.726602 0.0738461 0)
(0.628648 0.0471744 0)
(0.559763 0.0314293 0)
(0.510735 0.0229121 0)
(0.473156 0.0179503 0)
(0.443822 0.0145718 0)
(0.420424 0.0121617 0)
(0.401279 0.0104038 0)
(0.385319 0.00908105 0)
(0.371811 0.00806873 0)
(0.360214 0.0072903 0)
(0.350113 0.00668507 0)
(0.341221 0.00618333 0)
(0.333142 0.00563116 0)
(0.326005 0.00474841 0)
(0.316816 0.00245458 0)
(0.78019 0.103548 0)
(0.851563 0.121569 0)
(0.827256 0.0927637 0)
(0.761504 0.068671 0)
(0.700214 0.0501589 0)
(0.649947 0.0378033 0)
(0.608932 0.0299245 0)
(0.575749 0.0244976 0)
(0.548689 0.020565 0)
(0.526232 0.0176468 0)
(0.507322 0.015426 0)
(0.491206 0.0137061 0)
(0.477314 0.0123655 0)
(0.46519 0.0113142 0)
(0.454495 0.0104713 0)
(0.444786 0.00971006 0)
(0.436034 0.00893864 0)
(0.42582 0.00771979 0)
(0.772837 0.0809202 0)
(0.852369 0.113627 0)
(0.869044 0.0997581 0)
(0.841744 0.0829577 0)
(0.802502 0.0664695 0)
(0.762735 0.052939 0)
(0.726072 0.0430888 0)
(0.694166 0.0358718 0)
(0.666971 0.030447 0)
(0.643747 0.026312 0)
(0.623791 0.0231076 0)
(0.606532 0.0205885 0)
(0.591492 0.0185962 0)
(0.578265 0.0170184 0)
(0.566526 0.0157701 0)
(0.555852 0.0147598 0)
(0.546194 0.0140091 0)
(0.535616 0.0133973 0)
(0.765039 0.0614514 0)
(0.835446 0.0996654 0)
(0.87164 0.0969321 0)
(0.874189 0.0880098 0)
(0.860105 0.0764328 0)
(0.838113 0.0646793 0)
(0.812987 0.0547758 0)
(0.788174 0.0468282 0)
(0.765279 0.0404763 0)
(0.744672 0.0354166 0)
(0.726292 0.0313753 0)
(0.709955 0.0281274 0)
(0.695424 0.0255116 0)
(0.682443 0.0234123 0)
(0.67078 0.0217514 0)
(0.660105 0.0204681 0)
(0.65043 0.0196361 0)
(0.640215 0.0192305 0)
(0.759349 0.0459784 0)
(0.815237 0.0840549 0)
(0.855232 0.0883168 0)
(0.874219 0.0853896 0)
(0.879302 0.0790043 0)
(0.874917 0.0706465 0)
(0.864189 0.0624217 0)
(0.850294 0.0551073 0)
(0.835426 0.0487989 0)
(0.820705 0.0434689 0)
(0.80667 0.0390226 0)
(0.793573 0.0353333 0)
(0.781489 0.0322879 0)
(0.770385 0.0297987 0)
(0.760188 0.0278102 0)
(0.750717 0.0262881 0)
(0.742075 0.0253233 0)
(0.733096 0.0248793 0)
(0.755652 0.0342587 0)
(0.797922 0.0693275 0)
(0.833752 0.0774792 0)
(0.858329 0.078202 0)
(0.873724 0.0756989 0)
(0.881587 0.0707402 0)
(0.883134 0.0649167 0)
(0.880244 0.0591567 0)
(0.874666 0.0537763 0)
(0.867584 0.0489236 0)
(0.859762 0.0446608 0)
(0.851709 0.0409801 0)
(0.843737 0.0378466 0)
(0.836014 0.0352244 0)
(0.828633 0.0330947 0)
(0.821572 0.0314494 0)
(0.815022 0.0303814 0)
(0.808189 0.0298158 0)
(0.753325 0.0256114 0)
(0.784894 0.0564726 0)
(0.814076 0.066552 0)
(0.838197 0.0692244 0)
(0.856925 0.0690256 0)
(0.87071 0.066569 0)
(0.879806 0.0629079 0)
(0.88497 0.058867 0)
(0.887177 0.0548011 0)
(0.887238 0.0509004 0)
(0.885779 0.0472931 0)
(0.883296 0.0440468 0)
(0.880161 0.0411905 0)
(0.876638 0.038738 0)
(0.872915 0.0367068 0)
(0.869092 0.0351117 0)
(0.865399 0.0340398 0)
(0.861403 0.0333956 0)
(0.751861 0.0192915 0)
(0.775629 0.0456519 0)
(0.798333 0.0564458 0)
(0.81968 0.0601177 0)
(0.838009 0.0610913 0)
(0.85323 0.0601504 0)
(0.865426 0.0579993 0)
(0.874836 0.0553166 0)
(0.881872 0.0524431 0)
(0.88694 0.0495506 0)
(0.890405 0.0467628 0)
(0.892598 0.0441666 0)
(0.893812 0.0418183 0)
(0.894285 0.0397572 0)
(0.894214 0.0380208 0)
(0.893747 0.0366363 0)
(0.893096 0.0356771 0)
(0.892127 0.0350544 0)
(0.751024 0.0148819 0)
(0.769715 0.037324 0)
(0.787392 0.0481324 0)
(0.805813 0.0522714 0)
(0.822593 0.0537625 0)
(0.837183 0.0536044 0)
(0.849736 0.052314 0)
(0.860403 0.0504548 0)
(0.869356 0.0483632 0)
(0.876783 0.0461988 0)
(0.88287 0.0440646 0)
(0.887808 0.0420389 0)
(0.891783 0.0401785 0)
(0.894966 0.0385262 0)
(0.897514 0.0371209 0)
(0.899566 0.0359898 0)
(0.90128 0.0351879 0)
(0.902714 0.0346528 0)
(0.750503 0.0115742 0)
(0.765553 0.0302867 0)
(0.779079 0.040603 0)
(0.794753 0.0449755 0)
(0.809835 0.0467502 0)
(0.823237 0.0470673 0)
(0.835135 0.046344 0)
(0.845734 0.0450365 0)
(0.85513 0.0434766 0)
(0.863411 0.0418293 0)
(0.870672 0.040186 0)
(0.877022 0.0386125 0)
(0.882572 0.0371586 0)
(0.88743 0.0358621 0)
(0.891706 0.0347551 0)
(0.895511 0.0338589 0)
(0.898942 0.0332083 0)
(0.902179 0.0327632 0)
(0.750143 0.00876326 0)
(0.762324 0.0236661 0)
(0.772101 0.0329175 0)
(0.785006 0.0372775 0)
(0.798324 0.0391863 0)
(0.810375 0.039802 0)
(0.82122 0.039495 0)
(0.831139 0.0386064 0)
(0.840212 0.0374407 0)
(0.848472 0.0361743 0)
(0.855979 0.034898 0)
(0.862807 0.0336701 0)
(0.869028 0.0325332 0)
(0.874718 0.0315184 0)
(0.879946 0.0306482 0)
(0.884799 0.0299359 0)
(0.88932 0.0293946 0)
(0.893741 0.0290055 0)
(0.749907 0.00638951 0)
(0.759991 0.0176098 0)
(0.766653 0.0252833 0)
(0.776971 0.0292923 0)
(0.788601 0.0311629 0)
(0.799388 0.0319089 0)
(0.809168 0.031878 0)
(0.81825 0.03131 0)
(0.826723 0.0304508 0)
(0.834578 0.0294712 0)
(0.841844 0.0284633 0)
(0.848583 0.0274809 0)
(0.854857 0.0265611 0)
(0.860726 0.0257292 0)
(0.866245 0.0250005 0)
(0.871479 0.0243813 0)
(0.876448 0.0238709 0)
(0.881374 0.0234638 0)
(0.749758 0.0043441 0)
(0.758415 0.0121048 0)
(0.762711 0.0178012 0)
(0.770827 0.0210488 0)
(0.780956 0.0226515 0)
(0.790671 0.0233514 0)
(0.799554 0.0234486 0)
(0.807898 0.0231046 0)
(0.815806 0.0224907 0)
(0.823237 0.0217467 0)
(0.830181 0.0209552 0)
(0.836683 0.0201625 0)
(0.8428 0.0193982 0)
(0.848583 0.0186817 0)
(0.854076 0.0180227 0)
(0.859336 0.017423 0)
(0.864372 0.016876 0)
(0.869364 0.0163802 0)
(0.749671 0.00250799 0)
(0.75745 0.00699662 0)
(0.760155 0.01042 0)
(0.766639 0.0124762 0)
(0.775592 0.0135147 0)
(0.784491 0.0139622 0)
(0.792714 0.0140182 0)
(0.800512 0.013776 0)
(0.808004 0.0133323 0)
(0.815129 0.0127762 0)
(0.821842 0.0121653 0)
(0.828168 0.0115314 0)
(0.83415 0.0108933 0)
(0.839833 0.0102624 0)
(0.845251 0.00964309 0)
(0.850449 0.00903403 0)
(0.855433 0.00842717 0)
(0.860335 0.00782138 0)
(0.749632 0.000712672 0)
(0.757008 0.0019211 0)
(0.758927 0.00279276 0)
(0.764545 0.0032565 0)
(0.772853 0.00340898 0)
(0.781315 0.00337444 0)
(0.78919 0.00320715 0)
(0.796698 0.00292791 0)
(0.803971 0.00256252 0)
(0.810943 0.00213827 0)
(0.817549 0.00167331 0)
(0.823793 0.00117686 0)
(0.829713 0.000653301 0)
(0.835342 0.000104082 0)
(0.840709 -0.000472272 0)
(0.845847 -0.00107942 0)
(0.850762 -0.00172445 0)
(0.855544 -0.00240618 0)
(0.749651 -0.00135006 0)
(0.757169 -0.00389887 0)
(0.75931 -0.00600661 0)
(0.765165 -0.0074625 0)
(0.773688 -0.00841311 0)
(0.782326 -0.00907746 0)
(0.790341 -0.00957771 0)
(0.797964 -0.00997084 0)
(0.805334 -0.0103036 0)
(0.812389 -0.0106185 0)
(0.819064 -0.0109449 0)
(0.825365 -0.0113002 0)
(0.831326 -0.0116956 0)
(0.836982 -0.0121401 0)
(0.842357 -0.0126407 0)
(0.847479 -0.0132028 0)
(0.85236 -0.0138324 0)
(0.857053 -0.014525 0)
(0.749763 -0.00368098 0)
(0.758264 -0.0104291 0)
(0.762129 -0.0156266 0)
(0.769785 -0.0188676 0)
(0.779665 -0.0207396 0)
(0.789252 -0.0218752 0)
(0.798019 -0.0225638 0)
(0.806271 -0.0229398 0)
(0.814146 -0.0231314 0)
(0.821594 -0.0232507 0)
(0.828584 -0.0233675 0)
(0.835145 -0.0235193 0)
(0.841324 -0.0237288 0)
(0.847159 -0.0240115 0)
(0.852678 -0.0243774 0)
(0.85791 -0.0248315 0)
(0.862876 -0.025377 0)
(0.867595 -0.0260056 0)
(0.749958 -0.00640044 0)
(0.760248 -0.0177339 0)
(0.767069 -0.0256369 0)
(0.77754 -0.0299724 0)
(0.789393 -0.0322166 0)
(0.80037 -0.0334371 0)
(0.81029 -0.0340112 0)
(0.819528 -0.0341449 0)
(0.828203 -0.0340535 0)
(0.836292 -0.0338971 0)
(0.843807 -0.0337591 0)
(0.8508 -0.0336806 0)
(0.857323 -0.0336863 0)
(0.863416 -0.0337915 0)
(0.869112 -0.0340037 0)
(0.874443 -0.0343251 0)
(0.879436 -0.0347543 0)
(0.884096 -0.0352835 0)
(0.750358 -0.0101583 0)
(0.763991 -0.0271362 0)
(0.775674 -0.037334 0)
(0.790184 -0.0420175 0)
(0.804672 -0.0441766 0)
(0.817597 -0.0451866 0)
(0.829173 -0.0453986 0)
(0.839727 -0.0451075 0)
(0.849319 -0.0446094 0)
(0.857968 -0.0440752 0)
(0.865734 -0.0435764 0)
(0.872692 -0.0431494 0)
(0.878915 -0.0428186 0)
(0.884466 -0.0425984 0)
(0.889408 -0.0424952 0)
(0.8938 -0.0425112 0)
(0.89769 -0.0426424 0)
(0.901128 -0.0428956 0)
(0.751169 -0.0157542 0)
(0.770817 -0.0397032 0)
(0.789997 -0.0512691 0)
(0.809802 -0.0554335 0)
(0.827422 -0.0571044 0)
(0.842426 -0.0575235 0)
(0.855188 -0.0569386 0)
(0.865862 -0.0557888 0)
(0.874573 -0.0544382 0)
(0.881534 -0.0530523 0)
(0.886985 -0.0517054 0)
(0.891141 -0.0504499 0)
(0.894198 -0.0493226 0)
(0.896332 -0.0483443 0)
(0.89769 -0.0475233 0)
(0.898406 -0.0468633 0)
(0.89856 -0.0463563 0)
(0.898323 -0.0460267 0)
(0.752805 -0.02443 0)
(0.783008 -0.0565189 0)
(0.812805 -0.0678306 0)
(0.837928 -0.0704363 0)
(0.856734 -0.070712 0)
(0.870299 -0.0692978 0)
(0.879303 -0.0666039 0)
(0.884309 -0.0633937 0)
(0.886149 -0.0601301 0)
(0.885653 -0.0570015 0)
(0.883461 -0.0541061 0)
(0.880048 -0.0515027 0)
(0.875776 -0.0492133 0)
(0.870917 -0.047234 0)
(0.865665 -0.045548 0)
(0.860167 -0.0441352 0)
(0.854478 -0.0429657 0)
(0.848861 -0.0420535 0)
(0.756116 -0.0380014 0)
(0.803433 -0.0781059 0)
(0.84401 -0.0862201 0)
(0.86764 -0.0849296 0)
(0.877399 -0.0810352 0)
(0.878138 -0.0750827 0)
(0.872499 -0.068359 0)
(0.862639 -0.0619756 0)
(0.850514 -0.0563056 0)
(0.837443 -0.0513997 0)
(0.824155 -0.0472323 0)
(0.81105 -0.043738 0)
(0.798349 -0.0408283 0)
(0.786163 -0.0384147 0)
(0.774527 -0.0364198 0)
(0.763448 -0.0347782 0)
(0.752844 -0.0334324 0)
(0.742946 -0.0323624 0)
(0.762916 -0.0592437 0)
(0.830812 -0.103089 0)
(0.868613 -0.101338 0)
(0.869476 -0.0910528 0)
(0.851046 -0.0792046 0)
(0.82548 -0.0671936 0)
(0.797612 -0.0568707 0)
(0.77009 -0.0487228 0)
(0.744447 -0.0423725 0)
(0.721148 -0.0374038 0)
(0.700107 -0.0335042 0)
(0.681091 -0.030423 0)
(0.663854 -0.0279654 0)
(0.64816 -0.0259897 0)
(0.63379 -0.0243935 0)
(0.620569 -0.0230989 0)
(0.608283 -0.0220493 0)
(0.597061 -0.0212047 0)
(0.773745 -0.0905657 0)
(0.844927 -0.124791 0)
(0.8436 -0.101936 0)
(0.794037 -0.0784042 0)
(0.737397 -0.0595686 0)
(0.687876 -0.0455172 0)
(0.645952 -0.0360544 0)
(0.610685 -0.0297028 0)
(0.581114 -0.0251934 0)
(0.556075 -0.0218671 0)
(0.534547 -0.0193586 0)
(0.515788 -0.0174246 0)
(0.499253 -0.0159052 0)
(0.484526 -0.0146972 0)
(0.471281 -0.0137296 0)
(0.45927 -0.0129484 0)
(0.448249 -0.0123188 0)
(0.438274 -0.0118009 0)
(0.771893 -0.122258 0)
(0.791637 -0.125913 0)
(0.713204 -0.0774871 0)
(0.612788 -0.0472009 0)
(0.539277 -0.0305826 0)
(0.48901 -0.0216856 0)
(0.451138 -0.016879 0)
(0.421154 -0.0138252 0)
(0.396979 -0.0116397 0)
(0.377034 -0.01004 0)
(0.360196 -0.00884766 0)
(0.345729 -0.0079328 0)
(0.333123 -0.00721644 0)
(0.321998 -0.00664943 0)
(0.312065 -0.00619726 0)
(0.303115 -0.00583218 0)
(0.294946 -0.00553999 0)
(0.287579 -0.00528978 0)
(0.691738 -0.117941 0)
(0.600115 -0.086924 0)
(0.462665 -0.0351265 0)
(0.361186 -0.0157268 0)
(0.309676 -0.00909483 0)
(0.278618 -0.00662121 0)
(0.25488 -0.00532519 0)
(0.236164 -0.00434837 0)
(0.221324 -0.00362664 0)
(0.209213 -0.00311673 0)
(0.199056 -0.00274111 0)
(0.190377 -0.00245152 0)
(0.182851 -0.00222463 0)
(0.176234 -0.00204554 0)
(0.170346 -0.00190303 0)
(0.165053 -0.00178726 0)
(0.160234 -0.00169611 0)
(0.155897 -0.00161034 0)
(0.39551 -0.045865 0)
(0.244558 -0.0186414 0)
(0.154995 -0.00226977 0)
(0.112116 -0.000405685 0)
(0.0971246 -0.000478554 0)
(0.0873832 -0.000456188 0)
(0.0793005 -0.000366405 0)
(0.0730123 -0.000285214 0)
(0.0681084 -0.000234426 0)
(0.0641232 -0.000201548 0)
(0.0607873 -0.000176326 0)
(0.0579451 -0.000156192 0)
(0.0554872 -0.000140404 0)
(0.0533317 -0.000127953 0)
(0.0514172 -0.000118128 0)
(0.0497002 -0.000109489 0)
(0.0481375 -0.000104916 0)
(0.0467389 -9.48731e-05 0)
(0.000166974 -0.000400127 -1.65751e-20)
(0.000939883 -0.000818131 2.06233e-20)
(0.00206402 -0.000998229 0)
(0.00333065 -0.00104008 0)
(0.00454716 -0.00101617 0)
(0.00562623 -0.000966806 -2.05281e-20)
(0.00654076 -0.000913787 0)
(0.00728918 -0.00086704 0)
(0.0078772 -0.000828573 0)
(0.008308 -0.00079596 0)
(0.00857744 -0.000765126 2.05224e-20)
(0.00867255 -0.000732333 0)
(0.00857256 -0.000694469 0)
(0.00825054 -0.000649421 0)
(0.00767509 -0.000595879 0)
(0.00681205 -0.000532979 2.06451e-20)
(0.00562532 -0.000459989 0)
(0.00407725 -0.00037604 0)
(0.00212877 -0.000279983 0)
(-0.000260873 -0.000170225 0)
(-0.00313412 -4.46732e-05 0)
(-0.00653402 9.914e-05 0)
(-0.0105042 0.000263985 0)
(-0.0150879 0.000452796 2.04507e-20)
(-0.0203263 0.000668547 -2.03317e-20)
(-0.0262573 0.000914108 2.01974e-20)
(-0.0329133 0.00119204 2.00476e-20)
(-0.0403185 0.0015043 0)
(-0.0484871 0.00185192 0)
(-0.05742 0.00223455 -1.95053e-20)
(-0.0671023 0.00265 -1.92952e-20)
(-0.0775013 0.00309378 0)
(-0.0885641 0.00355881 0)
(-0.100216 0.00403517 -1.85915e-20)
(-0.112361 0.00451028 0)
(-0.124879 0.0049692 0)
(-0.137632 0.00539537 1.78108e-20)
(-0.15046 0.0057714 0)
(-0.16319 0.00608021 1.7272e-20)
(-0.175636 0.00630598 3.40052e-20)
(-0.187604 0.00643527 0)
(-0.198899 0.0064578 0)
(-0.209329 0.00636702 0)
(-0.218709 0.00616012 0)
(-0.226868 0.00583742 0)
(-0.233653 0.0054018 3.09597e-20)
(-0.238933 0.00485906 3.05037e-20)
(-0.2426 0.00421914 3.00664e-20)
(-0.244571 0.00350153 0)
(-0.244785 0.00273581 -2.92081e-20)
(-0.24325 0.00194525 0)
(-0.239994 0.00114973 2.83884e-20)
(-0.235078 0.000368167 2.80149e-20)
(-0.228593 -0.00038112 0)
(-0.220656 -0.00108131 0)
(-0.211413 -0.00171782 0)
(-0.201025 -0.0022788 2.67764e-20)
(-0.189675 -0.00275553 0)
(-0.177552 -0.00314261 0)
(-0.164853 -0.00343801 0)
(-0.151775 -0.00364289 0)
(-0.138509 -0.00376134 0)
(-0.125235 -0.0037999 0)
(-0.11212 -0.00376703 0)
(-0.0993132 -0.00367253 0)
(-0.0869424 -0.00352691 -2.53728e-20)
(-0.0751146 -0.00334084 0)
(-0.0639149 -0.00312473 0)
(-0.0534063 -0.00288839 2.51676e-20)
(-0.0436317 -0.00264068 2.51068e-20)
(-0.0346144 -0.00238953 0)
(-0.0263612 -0.00214149 -2.49829e-20)
(-0.0188633 -0.00190165 2.49164e-20)
(-0.0121037 -0.00167318 0)
(-0.00605698 -0.00145699 -2.47353e-20)
(-0.000690026 -0.00125606 0)
(0.00403631 -0.00107255 0)
(0.00816591 -0.000907168 2.38748e-20)
(0.0117427 -0.000759339 0)
(0.0148123 -0.000628248 -2.33519e-20)
(0.0174198 -0.000512841 0)
(0.0196088 -0.00041191 2.28993e-20)
(0.0214211 -0.000324175 2.26929e-20)
(0.022896 -0.000248345 2.2497e-20)
(0.0240705 -0.000183162 4.46191e-20)
(0.0249786 -0.000127434 -4.42584e-20)
(0.0256516 -8.00899e-05 0)
(0.0261186 -4.02616e-05 0)
(0.0264055 -7.34543e-06 0)
(0.0265344 1.94313e-05 -4.29055e-20)
(0.0265278 4.36346e-05 -4.25752e-20)
(0.0264064 6.29814e-05 4.22478e-20)
(0.0261863 7.83884e-05 0)
(0.0258827 9.05723e-05 -4.1597e-20)
(0.0255097 9.99972e-05 -4.12717e-20)
(0.0250798 0.000107042 -4.09454e-20)
(0.0246041 0.00011203 0)
(0.0240927 0.000115244 0)
(0.0235543 0.000116927 0)
(0.0229969 0.000117295 -3.96189e-20)
(0.0224275 0.000116533 0)
(0.0218522 0.000114805 0)
(0.0212765 0.000112257 3.85917e-20)
(0.020705 0.00010902 0)
(0.020142 0.000105209 0)
(0.0195908 0.000100932 3.75318e-20)
(0.0190544 9.62856e-05 0)
(0.0185353 9.13583e-05 0)
(0.0180354 8.62314e-05 -3.64389e-20)
(0.0175564 8.09786e-05 -3.60677e-20)
(0.0170992 7.56662e-05 0)
(0.0166648 7.03535e-05 3.53157e-20)
(0.0162536 6.50925e-05 0)
(0.0158658 5.99286e-05 -3.45522e-20)
(0.0155013 5.49005e-05 0)
(0.0151598 5.00406e-05 -3.37787e-20)
(0.0148409 4.53754e-05 -3.33887e-20)
(0.0145438 4.09257e-05 0)
(0.0142678 3.67071e-05 0)
(0.0140121 3.273e-05 0)
(0.0137757 2.89999e-05 0)
(0.0135576 2.55179e-05 0)
(0.0133568 2.22814e-05 0)
(0.0131722 1.92853e-05 0)
(0.0130028 1.65224e-05 -3.02185e-20)
(0.0128476 1.39844e-05 2.98187e-20)
(0.0127055 1.16623e-05 0)
(0.0125756 9.54622e-06 0)
(0.012457 7.62561e-06 0)
(0.0123486 5.88924e-06 0)
(0.0122497 4.32547e-06 5.56379e-20)
(0.0121594 2.92236e-06 0)
(0.0120769 1.66801e-06 -5.40421e-20)
(0.0120016 5.50709e-07 5.32459e-20)
(0.0119326 -4.40825e-07 0)
(0.0118694 -1.31724e-06 0)
(0.0118114 -2.08839e-06 0)
(0.011758 -2.76361e-06 -5.00764e-20)
(0.0117087 -3.35135e-06 -4.92886e-20)
(0.011663 -3.85959e-06 0)
(0.0116205 -4.29606e-06 -4.7719e-20)
(0.0115809 -4.66842e-06 -4.69376e-20)
(0.0115436 -4.9841e-06 4.61584e-20)
(0.0115085 -5.25025e-06 0)
(0.0114752 -5.47324e-06 0)
(0.0114434 -5.65868e-06 4.38356e-20)
(0.011413 -5.81112e-06 0)
(0.0113836 -5.93415e-06 0)
(0.0113551 -6.03067e-06 0)
(0.0113273 -6.10281e-06 0)
(0.0113 -6.1523e-06 -4.00162e-20)
(0.0112731 -6.18052e-06 -3.92605e-20)
(0.0112463 -6.18847e-06 0)
(0.0112196 -6.17661e-06 -3.77578e-20)
(0.0111926 -6.14518e-06 0)
(0.0111653 -6.09384e-06 0)
(0.0111373 -6.02182e-06 -3.55255e-20)
(0.0111086 -5.92759e-06 0)
(0.0110787 -5.80906e-06 -3.40522e-20)
(0.0110475 -5.66331e-06 0)
(0.0110145 -5.48665e-06 0)
(0.0109793 -5.27433e-06 -3.1865e-20)
(0.0109415 -5.02051e-06 0)
(0.0109003 -4.71794e-06 -3.04223e-20)
(0.0108552 -4.35807e-06 0)
(0.0108051 -3.93044e-06 0)
(0.010749 -3.42261e-06 0)
(0.0106855 -2.8199e-06 2.75748e-20)
(0.0106129 -2.10528e-06 0)
(0.0105293 -1.25828e-06 -2.61703e-20)
(0.010432 -2.57758e-07 0)
(0.010318 9.27782e-07 0)
(0.0101833 2.29948e-06 0)
(0.0100227 3.99207e-06 0)
(0.00983111 5.59487e-06 0)
(0.0095958 8.94851e-06 0)
(0.00932442 6.41843e-06 0)
(0.00890991 3.83695e-05 4.13918e-20)
(0.00879354 -5.13477e-05 0)
(0.00669205 0.000303037 0)
(0.000189597 -0.00175308 5.19307e-20)
(0.00114745 -0.00364154 -6.5311e-20)
(0.00233303 -0.00435394 0)
(0.00346718 -0.00432111 4.34736e-20)
(0.00431998 -0.00387901 0)
(0.00478688 -0.00325503 2.17746e-20)
(0.00483301 -0.00258127 -4.36034e-20)
(0.00445069 -0.00191712 -4.3684e-20)
(0.00363596 -0.00127181 0)
(0.0023754 -0.00062658 -4.3862e-20)
(0.000639452 4.80071e-05 -2.19333e-20)
(-0.00161871 0.000781464 0)
(-0.00446 0.00159753 0)
(-0.0079568 0.00251292 0)
(-0.0121889 0.00353837 0)
(-0.0172408 0.00468032 -2.14104e-20)
(-0.0231997 0.00594261 0)
(-0.0301533 0.00732775 4.20488e-20)
(-0.0381882 0.00883749 0)
(-0.0473877 0.0104727 0)
(-0.0578294 0.0122328 -4.05686e-20)
(-0.0695823 0.0141147 0)
(-0.0827028 0.0161118 3.93429e-20)
(-0.0972304 0.0182127 -1.93576e-20)
(-0.113183 0.0203997 1.90029e-20)
(-0.13055 0.0226482 -1.86343e-20)
(-0.149291 0.0249256 -1.82555e-20)
(-0.16933 0.0271913 0)
(-0.190552 0.0293968 0)
(-0.212801 0.0314872 1.70989e-20)
(-0.235884 0.0334024 -1.67037e-20)
(-0.25957 0.0350796 0)
(-0.283594 0.0364559 0)
(-0.307668 0.0374716 1.56543e-20)
(-0.331482 0.0380727 0)
(-0.354717 0.0382139 0)
(-0.37705 0.037861 -1.4744e-20)
(-0.398167 0.036992 0)
(-0.417765 0.0355991 1.4298e-20)
(-0.435565 0.0336878 -2.80377e-20)
(-0.451312 0.0312778 0)
(-0.464784 0.0284013 0)
(-0.475795 0.0251017 -5.40782e-20)
(-0.484196 0.0214322 -5.35136e-20)
(-0.489874 0.0174542 -5.30159e-20)
(-0.492757 0.0132362 2.63896e-20)
(-0.492811 0.00885494 -2.60036e-20)
(-0.490029 0.00439569 -7.75014e-20)
(-0.484498 -5.82181e-05 5.12878e-20)
(-0.476316 -0.00442745 2.53183e-20)
(-0.465576 -0.00863616 0)
(-0.452414 -0.012619 -2.49446e-20)
(-0.436991 -0.0163164 2.4973e-20)
(-0.419494 -0.0196753 0)
(-0.400134 -0.0226503 0)
(-0.379142 -0.0252054 0)
(-0.356764 -0.0273149 -2.45401e-20)
(-0.33326 -0.0289641 0)
(-0.308895 -0.0301497 4.93188e-20)
(-0.283937 -0.0308799 0)
(-0.25865 -0.0311734 4.96932e-20)
(-0.23329 -0.0310586 0)
(-0.208098 -0.0305721 -5.03165e-20)
(-0.183299 -0.0297566 0)
(-0.159093 -0.0286595 5.11509e-20)
(-0.135661 -0.0273303 -2.58402e-20)
(-0.113154 -0.025819 0)
(-0.091699 -0.0241747 -5.26648e-20)
(-0.0713949 -0.0224436 -2.65812e-20)
(-0.0523157 -0.0206687 -2.68499e-20)
(-0.0345087 -0.0188894 0)
(-0.0180003 -0.0171325 -2.73482e-20)
(-0.0028017 -0.0154196 -2.70569e-20)
(0.0110894 -0.0137738 0)
(0.0237076 -0.0122109 2.58716e-20)
(0.0350896 -0.010743 -5.07731e-20)
(0.0452859 -0.0093785 0)
(0.0543548 -0.00812177 -2.45383e-20)
(0.0623601 -0.00697335 0)
(0.0693695 -0.00593145 7.16074e-20)
(0.0754528 -0.00499245 0)
(0.0806804 -0.00415137 -6.99494e-20)
(0.0851217 -0.00340233 -2.30724e-20)
(0.0888446 -0.00273894 2.28606e-20)
(0.0919145 -0.00215451 4.53099e-20)
(0.0943939 -0.00164237 -4.49264e-20)
(0.096342 -0.00119603 0)
(0.0978143 -0.000809359 0)
(0.0988626 -0.000476776 0)
(0.0995361 -0.000192809 1.30753e-19)
(0.0998789 5.00747e-05 4.32726e-20)
(0.0999317 0.000255191 -4.29606e-20)
(0.0997339 0.00042585 0)
(0.0993198 0.000565944 -4.23632e-20)
(0.0987211 0.000679288 4.20689e-20)
(0.0979669 0.000768983 4.178e-20)
(0.0970836 0.000837824 0)
(0.0960951 0.000888352 0)
(0.0950231 0.000922855 0)
(0.093887 0.000943396 4.06273e-20)
(0.0927043 0.000951833 0)
(0.0914906 0.000949847 -8.00767e-20)
(0.0902596 0.000938959 -1.19217e-19)
(0.0890235 0.000920545 7.88693e-20)
(0.0877928 0.000895857 0)
(0.0865767 0.000866028 3.88116e-20)
(0.085383 0.000832087 0)
(0.0842181 0.000794964 7.63403e-20)
(0.0830875 0.000755494 -3.78403e-20)
(0.0819954 0.000714427 -3.75061e-20)
(0.0809452 0.000672425 0)
(0.0799393 0.00063007 -1.1047e-19)
(0.0789793 0.000587868 7.29479e-20)
(0.0780663 0.00054625 3.61207e-20)
(0.0772005 0.000505577 0)
(0.0763818 0.000466149 3.53994e-20)
(0.0756094 0.000428205 1.05097e-19)
(0.0748824 0.000391932 0)
(0.0741993 0.000357466 6.85749e-20)
(0.0735585 0.0003249 6.78203e-20)
(0.0729582 0.000294287 6.70597e-20)
(0.0723964 0.000265645 0)
(0.0718711 0.000238962 0)
(0.0713802 0.000214205 0)
(0.0709214 0.000191321 -3.19833e-20)
(0.0704927 0.000170244 -3.15925e-20)
(0.070092 0.0001509 0)
(0.0697171 0.000133208 -6.1609e-20)
(0.0693661 0.00011708 -6.08177e-20)
(0.069037 0.000102428 0)
(0.0687281 8.91585e-05 -5.92299e-20)
(0.0684375 7.71779e-05 -1.16866e-19)
(0.0681636 6.63939e-05 5.76363e-20)
(0.0679049 5.67157e-05 5.68374e-20)
(0.0676598 4.80557e-05 0)
(0.067427 4.03306e-05 0)
(0.0672053 3.34618e-05 0)
(0.0669934 2.73758e-05 5.36434e-20)
(0.0667903 2.2004e-05 -5.28444e-20)
(0.0665949 1.7282e-05 -1.04094e-19)
(0.0664064 1.31492e-05 5.12499e-20)
(0.0662238 9.54798e-06 -5.0453e-20)
(0.0660463 6.42348e-06 -4.9658e-20)
(0.0658733 3.72446e-06 0)
(0.0657041 1.40445e-06 0)
(0.065538 -5.77523e-07 4.72775e-20)
(0.0653745 -2.25622e-06 0)
(0.0652131 -3.65985e-06 0)
(0.0650533 -4.81109e-06 -8.9819e-20)
(0.0648947 -5.7272e-06 0)
(0.0647367 -6.42083e-06 -4.33381e-20)
(0.064579 -6.90053e-06 4.25552e-20)
(0.0644211 -7.17042e-06 0)
(0.0642626 -7.23014e-06 -4.09938e-20)
(0.064103 -7.07448e-06 0)
(0.0639419 -6.69235e-06 0)
(0.0637786 -6.06623e-06 3.86662e-20)
(0.0636126 -5.17081e-06 -7.57878e-20)
(0.0634432 -3.97176e-06 3.71239e-20)
(0.0632696 -2.42412e-06 0)
(0.0630909 -4.70455e-07 0)
(0.0629058 1.96216e-06 -3.48256e-20)
(0.0627131 4.96471e-06 0)
(0.062511 8.65073e-06 -3.33044e-20)
(0.0622977 1.31609e-05 0)
(0.0620705 1.86696e-05 0)
(0.0618265 2.53934e-05 0)
(0.0615618 3.36009e-05 -3.02902e-20)
(0.0612718 4.36261e-05 0)
(0.0609507 5.58883e-05 2.87975e-20)
(0.0605912 7.09118e-05 0)
(0.060184 8.93761e-05 0)
(0.0597176 0.000112114 -5.31565e-20)
(0.0591765 0.000140436 5.16895e-20)
(0.0585437 0.000175404 0)
(0.0577828 0.000222035 0)
(0.0568995 0.000275632 0)
(0.0556504 0.000393582 -1.37705e-19)
(0.0548616 0.000472984 0)
(0.0502833 0.00112731 8.61587e-20)
(0.000121832 -0.00276873 -3.49496e-23)
(0.000427572 -0.00529929 8.70708e-20)
(0.000446067 -0.00576002 0)
(-2.20552e-05 -0.00497933 -8.71938e-20)
(-0.00109411 -0.00355132 0)
(-0.0028041 -0.00185433 0)
(-0.00515262 -9.07243e-05 3.60843e-23)
(-0.00813872 0.00166541 4.31492e-20)
(-0.0117764 0.0034223 4.28618e-20)
(-0.0161019 0.00523166 4.26144e-20)
(-0.0211745 0.00715952 0)
(-0.0270731 0.00926703 0)
(-0.0338913 0.0116015 -4.14578e-20)
(-0.0417317 0.0141943 -8.19792e-20)
(-0.050701 0.017063 8.09404e-20)
(-0.0609058 0.0202143 0)
(-0.0724484 0.0236467 7.85553e-20)
(-0.0854228 0.027352 -3.86519e-20)
(-0.0999105 0.0313153 0)
(-0.115975 0.035514 7.42842e-20)
(-0.133657 0.0399159 3.63939e-20)
(-0.152969 0.0444771 -7.10985e-20)
(-0.173887 0.049141 -3.47511e-20)
(-0.196351 0.0538364 0)
(-0.220254 0.0584781 6.61393e-20)
(-0.245446 0.0629678 6.45133e-20)
(-0.271732 0.0671969 0)
(-0.298873 0.0710496 6.14097e-20)
(-0.326592 0.0744079 0)
(-0.354581 0.077157 5.85991e-20)
(-0.382507 0.0791901 2.86032e-20)
(-0.410027 0.0804139 0)
(-0.436793 0.0807528 0)
(-0.462462 0.0801522 0)
(-0.48671 0.0785806 0)
(-0.509235 0.0760308 0)
(-0.529765 0.072519 0)
(-0.548061 0.0680843 5.12595e-20)
(-0.563923 0.0627856 -7.59949e-20)
(-0.577189 0.0566998 0)
(-0.587733 0.049918 0)
(-0.595466 0.0425427 0)
(-0.600333 0.0346847 -3.49904e-22)
(-0.602312 0.0264613 4.90004e-20)
(-0.601407 0.0179947 9.813e-20)
(-0.597648 0.00940888 -9.78888e-20)
(-0.591093 0.000827491 -4.8836e-20)
(-0.581853 -0.00763321 4.81168e-20)
(-0.569977 -0.0158665 3.26963e-22)
(-0.555564 -0.0237763 4.77609e-20)
(-0.538733 -0.0312681 0)
(-0.519627 -0.0382507 4.72412e-20)
(-0.498409 -0.0446404 2.68629e-22)
(-0.475265 -0.0503627 0)
(-0.4504 -0.0553546 0)
(-0.424038 -0.0595667 -4.68336e-20)
(-0.396419 -0.0629651 0)
(-0.367794 -0.0655326 0)
(-0.338419 -0.06727 4.73677e-20)
(-0.308554 -0.0681958 9.49785e-20)
(-0.278454 -0.0683451 -4.77234e-20)
(-0.248367 -0.0677687 0)
(-0.218526 -0.0665302 4.86923e-20)
(-0.189148 -0.0647037 0)
(-0.16043 -0.0623702 5.00811e-20)
(-0.132547 -0.059615 5.06647e-20)
(-0.105648 -0.0565247 -1.02976e-19)
(-0.0798613 -0.0531843 -5.23427e-20)
(-0.0552891 -0.0496755 0)
(-0.0320098 -0.0460731 1.08001e-19)
(-0.0100808 -0.0424396 0)
(0.0104464 -0.038824 1.57592e-19)
(0.0295614 -0.0352765 1.02218e-19)
(0.0472594 -0.0318395 9.96777e-20)
(0.063552 -0.0285466 -9.74209e-20)
(0.0784658 -0.0254224 1.43095e-19)
(0.0920383 -0.0224845 0)
(0.104317 -0.0197443 0)
(0.115354 -0.0172076 -9.05688e-20)
(0.125212 -0.0148751 -1.33888e-19)
(0.133951 -0.0127441 0)
(0.14164 -0.0108087 4.35009e-20)
(0.148345 -0.00906082 0)
(0.154134 -0.00749073 -1.27744e-19)
(0.159076 -0.00608772 2.31527e-23)
(0.163235 -0.00484047 -2.12331e-23)
(0.166677 -0.00373748 8.28892e-20)
(0.169464 -0.00276732 0)
(0.171656 -0.00191881 -8.16035e-20)
(0.173311 -0.00118114 1.44997e-23)
(0.174483 -0.000544765 0)
(0.175222 1.02467e-06 0)
(0.175577 0.000464574 0)
(0.175595 0.000853235 7.8666e-20)
(0.175317 0.00117528 0)
(0.174784 0.00143778 0)
(0.174032 0.00164711 0)
(0.173094 0.00180918 0)
(0.172003 0.00192944 0)
(0.170786 0.00201289 7.54769e-20)
(0.16947 0.00206409 0)
(0.168078 0.00208726 7.44321e-20)
(0.166632 0.00208625 7.39065e-20)
(0.165149 0.00206458 -7.33752e-20)
(0.163646 0.00202547 0)
(0.162139 0.00197187 -7.22914e-20)
(0.16064 0.00190647 0)
(0.15916 0.00183168 -7.11736e-20)
(0.157708 0.0017497 7.06006e-20)
(0.156291 0.00166248 2.10055e-19)
(0.154916 0.00157177 0)
(0.153587 0.0014791 2.06468e-19)
(0.152309 0.00138579 6.82108e-20)
(0.151083 0.00129299 0)
(0.149912 0.00120165 1.33913e-19)
(0.148795 0.00111258 1.32632e-19)
(0.147733 0.00102641 -1.96999e-19)
(0.146726 0.000943668 0)
(0.145773 0.000864726 -6.43434e-20)
(0.144871 0.000789862 -6.36707e-20)
(0.144019 0.000719252 -1.88973e-19)
(0.143215 0.000652986 0)
(0.142456 0.000591083 0)
(0.141741 0.0005335 0)
(0.141066 0.000480147 -6.02127e-20)
(0.14043 0.000430897 0)
(0.139829 0.000385595 0)
(0.139261 0.000344066 5.80805e-20)
(0.138723 0.000306119 5.73624e-20)
(0.138214 0.000271555 0)
(0.137731 0.000240167 0)
(0.137271 0.000211746 1.10384e-19)
(0.136833 0.000186086 0)
(0.136414 0.000162981 -1.07469e-19)
(0.136013 0.000142235 -1.06007e-19)
(0.135628 0.000123659 0)
(0.135257 0.000107071 0)
(0.1349 9.23037e-05 1.0161e-19)
(0.134553 7.91978e-05 4.78403e-25)
(0.134216 6.76055e-05 4.55703e-25)
(0.133888 5.73885e-05 0)
(0.133568 4.84177e-05 1.91468e-19)
(0.133255 4.05724e-05 0)
(0.132947 3.37408e-05 0)
(0.132643 2.78216e-05 0)
(0.132344 2.27248e-05 -8.98605e-20)
(0.132048 1.83725e-05 0)
(0.131754 1.46994e-05 1.73858e-19)
(0.131462 1.16525e-05 8.54655e-20)
(0.131172 9.19036e-06 0)
(0.130881 7.28261e-06 8.2543e-20)
(0.130591 5.90939e-06 0)
(0.1303 5.06201e-06 0)
(0.130008 4.74316e-06 2.34519e-19)
(0.129714 4.96848e-06 -1.53441e-19)
(0.129417 5.76829e-06 0)
(0.129116 7.18985e-06 -1.47645e-19)
(0.128812 9.30016e-06 7.23777e-20)
(0.128502 1.21898e-05 0)
(0.128186 1.59769e-05 0)
(0.127862 2.08131e-05 0)
(0.127528 2.68903e-05 1.9987e-19)
(0.127184 3.44494e-05 0)
(0.126826 4.37917e-05 6.37635e-20)
(0.126451 5.52926e-05 0)
(0.126056 6.94203e-05 0)
(0.125637 8.67587e-05 0)
(0.125188 0.000108038 0)
(0.124703 0.000134174 0)
(0.124173 0.000166323 0)
(0.123587 0.000205955 1.07718e-19)
(0.122932 0.000254974 0)
(0.122191 0.000315831 5.10666e-20)
(0.121341 0.000392044 -1.49028e-19)
(0.120357 0.000487826 0)
(0.119186 0.000612866 0)
(0.117831 0.000771602 9.10857e-20)
(0.115973 0.00102864 8.83717e-20)