# Region type : patch inlet
# Faces  :    30
# Area   :    2.540000e-05
# Time        	areaAverage(p)	areaAverage(U)
0             	0.000000e+00	(0.000000e+00 0.000000e+00 0.000000e+00)
0.00117647    	2.402636e-02	(1.517740e-04 0.000000e+00 0.000000e+00)
0.00252101    	7.553987e-02	(6.967948e-04 0.000000e+00 0.000000e+00)
0.00411001    	1.357099e-01	(1.851289e-03 0.000000e+00 0.000000e+00)
0.00587556    	2.048943e-01	(3.781011e-03 0.000000e+00 0.000000e+00)
0.00789334    	2.833070e-01	(6.816939e-03 0.000000e+00 0.000000e+00)
0.0103147     	3.756984e-01	(1.162193e-02 0.000000e+00 0.000000e+00)
0.012736      	4.754888e-01	(1.768264e-02 0.000000e+00 0.000000e+00)
0.0151573     	5.749245e-01	(2.498346e-02 0.000000e+00 0.000000e+00)
0.0175787     	6.733270e-01	(3.350565e-02 0.000000e+00 0.000000e+00)
0.02          	7.706029e-01	(4.322727e-02 0.000000e+00 0.000000e+00)
0.0228571     	8.760571e-01	(5.620711e-02 0.000000e+00 0.000000e+00)
0.0262857     	9.990947e-01	(7.387545e-02 0.000000e+00 0.000000e+00)
0.0297143     	1.127599e+00	(9.374011e-02 0.000000e+00 0.000000e+00)
0.0331429     	1.251219e+00	(1.156987e-01 0.000000e+00 0.000000e+00)
0.0365714     	1.369247e+00	(1.396380e-01 0.000000e+00 0.000000e+00)
0.04          	1.480938e+00	(1.654347e-01 0.000000e+00 0.000000e+00)
0.044         	1.595520e+00	(1.977004e-01 0.000000e+00 0.000000e+00)
0.048         	1.707165e+00	(2.320866e-01 0.000000e+00 0.000000e+00)
0.052         	1.808921e+00	(2.683520e-01 0.000000e+00 0.000000e+00)
0.056         	1.897119e+00	(3.062422e-01 0.000000e+00 0.000000e+00)
0.06          	1.974644e+00	(3.454915e-01 0.000000e+00 0.000000e+00)
0.064         	2.037878e+00	(3.858246e-01 0.000000e+00 0.000000e+00)
0.0672        	2.081498e+00	(4.186814e-01 0.000000e+00 0.000000e+00)
0.0704        	2.112912e+00	(4.519034e-01 0.000000e+00 0.000000e+00)
0.0736        	2.135317e+00	(4.853413e-01 0.000000e+00 0.000000e+00)
0.0757333     	2.144988e+00	(5.076791e-01 0.000000e+00 0.000000e+00)
0.0778667     	2.150374e+00	(5.300016e-01 0.000000e+00 0.000000e+00)
0.08          	2.151597e+00	(5.522642e-01 0.000000e+00 0.000000e+00)
0.0822222     	2.149159e+00	(5.753429e-01 0.000000e+00 0.000000e+00)
0.0844444     	2.142406e+00	(5.982583e-01 0.000000e+00 0.000000e+00)
0.0866667     	2.131361e+00	(6.209609e-01 0.000000e+00 0.000000e+00)
0.0888889     	2.116231e+00	(6.434016e-01 0.000000e+00 0.000000e+00)
0.0911111     	2.096997e+00	(6.655317e-01 0.000000e+00 0.000000e+00)
0.0933333     	2.073758e+00	(6.873033e-01 0.000000e+00 0.000000e+00)
0.0955556     	2.045672e+00	(7.086692e-01 0.000000e+00 0.000000e+00)
0.0977778     	2.014489e+00	(7.295832e-01 0.000000e+00 0.000000e+00)
0.1           	1.979549e+00	(7.500000e-01 0.000000e+00 0.000000e+00)
0.102222      	1.940887e+00	(7.698753e-01 0.000000e+00 0.000000e+00)
0.104198      	1.901043e+00	(7.870529e-01 0.000000e+00 0.000000e+00)
0.106173      	1.860748e+00	(8.037393e-01 0.000000e+00 0.000000e+00)
0.108148      	1.817525e+00	(8.199058e-01 0.000000e+00 0.000000e+00)
0.110123      	1.771560e+00	(8.355249e-01 0.000000e+00 0.000000e+00)
0.112099      	1.722889e+00	(8.505699e-01 0.000000e+00 0.000000e+00)
0.114074      	1.671550e+00	(8.650149e-01 0.000000e+00 0.000000e+00)
0.116049      	1.617571e+00	(8.788352e-01 0.000000e+00 0.000000e+00)
0.118025      	1.561496e+00	(8.920073e-01 0.000000e+00 0.000000e+00)
0.12          	1.502632e+00	(9.045085e-01 0.000000e+00 0.000000e+00)
0.121818      	1.443971e+00	(9.154039e-01 0.000000e+00 0.000000e+00)
0.123636      	1.385777e+00	(9.256971e-01 0.000000e+00 0.000000e+00)
0.125455      	1.325725e+00	(9.353730e-01 0.000000e+00 0.000000e+00)
0.127273      	1.263914e+00	(9.444177e-01 0.000000e+00 0.000000e+00)
0.129091      	1.200422e+00	(9.528180e-01 0.000000e+00 0.000000e+00)
0.130909      	1.135344e+00	(9.605618e-01 0.000000e+00 0.000000e+00)
0.132727      	1.068769e+00	(9.676378e-01 0.000000e+00 0.000000e+00)
0.134545      	1.000794e+00	(9.740358e-01 0.000000e+00 0.000000e+00)
0.136364      	9.315150e-01	(9.797465e-01 0.000000e+00 0.000000e+00)
0.138182      	8.610229e-01	(9.847616e-01 0.000000e+00 0.000000e+00)
0.14          	7.894967e-01	(9.890738e-01 0.000000e+00 0.000000e+00)
0.141818      	7.168622e-01	(9.926769e-01 0.000000e+00 0.000000e+00)
0.143636      	6.433403e-01	(9.955657e-01 0.000000e+00 0.000000e+00)
0.145455      	5.690160e-01	(9.977360e-01 0.000000e+00 0.000000e+00)
0.147273      	4.940068e-01	(9.991846e-01 0.000000e+00 0.000000e+00)
0.149091      	4.172796e-01	(9.999094e-01 0.000000e+00 0.000000e+00)
0.150909      	3.414162e-01	(9.999094e-01 0.000000e+00 0.000000e+00)
0.152727      	2.649135e-01	(9.991846e-01 0.000000e+00 0.000000e+00)
0.154545      	1.885382e-01	(9.977360e-01 0.000000e+00 0.000000e+00)
0.156364      	1.119411e-01	(9.955657e-01 0.000000e+00 0.000000e+00)
0.158182      	3.504611e-02	(9.926769e-01 0.000000e+00 0.000000e+00)
0.16          	-4.200161e-02	(9.890738e-01 0.000000e+00 0.000000e+00)
0.161818      	-1.188752e-01	(9.847616e-01 0.000000e+00 0.000000e+00)
0.163636      	-1.944410e-01	(9.797465e-01 0.000000e+00 0.000000e+00)
0.165455      	-2.702479e-01	(9.740358e-01 0.000000e+00 0.000000e+00)
0.167273      	-3.453287e-01	(9.676378e-01 0.000000e+00 0.000000e+00)
0.169091      	-4.196175e-01	(9.605618e-01 0.000000e+00 0.000000e+00)
0.170909      	-4.930212e-01	(9.528180e-01 0.000000e+00 0.000000e+00)
0.172727      	-5.654482e-01	(9.444177e-01 0.000000e+00 0.000000e+00)
0.174545      	-6.368089e-01	(9.353730e-01 0.000000e+00 0.000000e+00)
0.176364      	-7.070842e-01	(9.256971e-01 0.000000e+00 0.000000e+00)
0.178182      	-7.763931e-01	(9.154039e-01 0.000000e+00 0.000000e+00)
0.18          	-8.443746e-01	(9.045085e-01 0.000000e+00 0.000000e+00)
0.182         	-9.150409e-01	(8.918467e-01 0.000000e+00 0.000000e+00)
0.184         	-9.863846e-01	(8.784975e-01 0.000000e+00 0.000000e+00)
0.186         	-1.055750e+00	(8.644843e-01 0.000000e+00 0.000000e+00)
0.188         	-1.122916e+00	(8.498317e-01 0.000000e+00 0.000000e+00)
0.19          	-1.187837e+00	(8.345653e-01 0.000000e+00 0.000000e+00)
0.192         	-1.250421e+00	(8.187120e-01 0.000000e+00 0.000000e+00)
0.194         	-1.310560e+00	(8.022996e-01 0.000000e+00 0.000000e+00)
0.196         	-1.368147e+00	(7.853568e-01 0.000000e+00 0.000000e+00)
0.198         	-1.423058e+00	(7.679134e-01 0.000000e+00 0.000000e+00)
0.2           	-1.475148e+00	(7.500000e-01 0.000000e+00 0.000000e+00)
0.202222      	-1.527821e+00	(7.295832e-01 0.000000e+00 0.000000e+00)
0.204444      	-1.578834e+00	(7.086692e-01 0.000000e+00 0.000000e+00)
0.206667      	-1.626531e+00	(6.873033e-01 0.000000e+00 0.000000e+00)
0.208889      	-1.670356e+00	(6.655317e-01 0.000000e+00 0.000000e+00)
0.211111      	-1.710418e+00	(6.434016e-01 0.000000e+00 0.000000e+00)
0.213333      	-1.746314e+00	(6.209609e-01 0.000000e+00 0.000000e+00)
0.215556      	-1.777896e+00	(5.982583e-01 0.000000e+00 0.000000e+00)
0.217778      	-1.805158e+00	(5.753429e-01 0.000000e+00 0.000000e+00)
0.22          	-1.828217e+00	(5.522642e-01 0.000000e+00 0.000000e+00)
0.2225        	-1.848715e+00	(5.261680e-01 0.000000e+00 0.000000e+00)
0.225         	-1.864027e+00	(5.000000e-01 0.000000e+00 0.000000e+00)
0.2275        	-1.874720e+00	(4.738320e-01 0.000000e+00 0.000000e+00)
0.23          	-1.878440e+00	(4.477358e-01 0.000000e+00 0.000000e+00)
0.2325        	-1.877013e+00	(4.217828e-01 0.000000e+00 0.000000e+00)
0.235         	-1.870610e+00	(3.960442e-01 0.000000e+00 0.000000e+00)
0.2375        	-1.859396e+00	(3.705905e-01 0.000000e+00 0.000000e+00)
0.24          	-1.842463e+00	(3.454915e-01 0.000000e+00 0.000000e+00)
0.2425        	-1.819219e+00	(3.208160e-01 0.000000e+00 0.000000e+00)
0.245         	-1.791218e+00	(2.966317e-01 0.000000e+00 0.000000e+00)
0.2475        	-1.758301e+00	(2.730048e-01 0.000000e+00 0.000000e+00)
0.25          	-1.719436e+00	(2.500000e-01 0.000000e+00 0.000000e+00)
0.2525        	-1.675570e+00	(2.276805e-01 0.000000e+00 0.000000e+00)
0.255         	-1.626741e+00	(2.061074e-01 0.000000e+00 0.000000e+00)
0.2575        	-1.573210e+00	(1.853398e-01 0.000000e+00 0.000000e+00)
0.26          	-1.514874e+00	(1.654347e-01 0.000000e+00 0.000000e+00)
0.262857      	-1.447559e+00	(1.438120e-01 0.000000e+00 0.000000e+00)
0.265714      	-1.369603e+00	(1.234643e-01 0.000000e+00 0.000000e+00)
0.268571      	-1.286714e+00	(1.044645e-01 0.000000e+00 0.000000e+00)
0.271429      	-1.197980e+00	(8.688061e-02 0.000000e+00 0.000000e+00)
0.274286      	-1.104670e+00	(7.077560e-02 0.000000e+00 0.000000e+00)
0.277143      	-1.006458e+00	(5.620711e-02 0.000000e+00 0.000000e+00)
0.28          	-9.056972e-01	(4.322727e-02 0.000000e+00 0.000000e+00)
0.282857      	-7.995941e-01	(3.188256e-02 0.000000e+00 0.000000e+00)
0.285714      	-6.904375e-01	(2.221360e-02 0.000000e+00 0.000000e+00)
0.288571      	-5.782262e-01	(1.425498e-02 0.000000e+00 0.000000e+00)
0.291429      	-4.635658e-01	(8.035206e-03 0.000000e+00 0.000000e+00)
0.294286      	-3.466694e-01	(3.576537e-03 0.000000e+00 0.000000e+00)
0.297143      	-2.279068e-01	(8.949351e-04 0.000000e+00 0.000000e+00)
0.3           	-1.077194e-01	(0.000000e+00 0.000000e+00 0.000000e+00)
0.302857      	-4.690838e-02	(0.000000e+00 0.000000e+00 0.000000e+00)
0.305714      	-4.376775e-02	(0.000000e+00 0.000000e+00 0.000000e+00)
0.308571      	-4.016821e-02	(0.000000e+00 0.000000e+00 0.000000e+00)
0.311429      	-3.731211e-02	(0.000000e+00 0.000000e+00 0.000000e+00)
0.314286      	-3.479284e-02	(0.000000e+00 0.000000e+00 0.000000e+00)
0.317143      	-3.261429e-02	(0.000000e+00 0.000000e+00 0.000000e+00)
0.32          	-3.070652e-02	(0.000000e+00 0.000000e+00 0.000000e+00)
0.322857      	-2.904596e-02	(0.000000e+00 0.000000e+00 0.000000e+00)
0.325714      	-2.758706e-02	(0.000000e+00 0.000000e+00 0.000000e+00)
0.328571      	-2.630963e-02	(0.000000e+00 0.000000e+00 0.000000e+00)
0.331429      	-2.518841e-02	(0.000000e+00 0.000000e+00 0.000000e+00)
0.334286      	-2.421097e-02	(0.000000e+00 0.000000e+00 0.000000e+00)
0.337143      	-2.334562e-02	(0.000000e+00 0.000000e+00 0.000000e+00)
0.34          	-2.258897e-02	(0.000000e+00 0.000000e+00 0.000000e+00)
0.342857      	-2.192862e-02	(0.000000e+00 0.000000e+00 0.000000e+00)
0.345714      	-2.135153e-02	(0.000000e+00 0.000000e+00 0.000000e+00)
0.348571      	-2.084908e-02	(0.000000e+00 0.000000e+00 0.000000e+00)
0.351429      	-2.041329e-02	(0.000000e+00 0.000000e+00 0.000000e+00)
0.354286      	-2.003715e-02	(0.000000e+00 0.000000e+00 0.000000e+00)
0.357143      	-1.970905e-02	(0.000000e+00 0.000000e+00 0.000000e+00)
0.36          	-1.943172e-02	(0.000000e+00 0.000000e+00 0.000000e+00)
0.362857      	-1.919326e-02	(0.000000e+00 0.000000e+00 0.000000e+00)
0.365714      	-1.899179e-02	(0.000000e+00 0.000000e+00 0.000000e+00)
0.368571      	-1.882086e-02	(0.000000e+00 0.000000e+00 0.000000e+00)
0.371429      	-1.867830e-02	(0.000000e+00 0.000000e+00 0.000000e+00)
0.374286      	-1.855823e-02	(0.000000e+00 0.000000e+00 0.000000e+00)
0.377143      	-1.846982e-02	(0.000000e+00 0.000000e+00 0.000000e+00)
0.38          	-1.838304e-02	(0.000000e+00 0.000000e+00 0.000000e+00)
0.382857      	-1.840534e-02	(0.000000e+00 0.000000e+00 0.000000e+00)
0.385714      	-1.835166e-02	(0.000000e+00 0.000000e+00 0.000000e+00)
0.388571      	-1.830333e-02	(0.000000e+00 0.000000e+00 0.000000e+00)
0.391429      	-1.826183e-02	(0.000000e+00 0.000000e+00 0.000000e+00)
0.394286      	-1.822465e-02	(0.000000e+00 0.000000e+00 0.000000e+00)
0.397143      	-1.819480e-02	(0.000000e+00 0.000000e+00 0.000000e+00)
0.4           	-1.816571e-02	(0.000000e+00 0.000000e+00 0.000000e+00)
0.402857      	-1.813970e-02	(0.000000e+00 0.000000e+00 0.000000e+00)
0.405714      	-1.811197e-02	(0.000000e+00 0.000000e+00 0.000000e+00)
0.408571      	-1.808602e-02	(0.000000e+00 0.000000e+00 0.000000e+00)
0.411429      	-1.805209e-02	(0.000000e+00 0.000000e+00 0.000000e+00)
0.414286      	-1.802067e-02	(0.000000e+00 0.000000e+00 0.000000e+00)
0.417143      	-1.798417e-02	(0.000000e+00 0.000000e+00 0.000000e+00)
0.42          	-1.794277e-02	(0.000000e+00 0.000000e+00 0.000000e+00)
0.422857      	-1.789505e-02	(0.000000e+00 0.000000e+00 0.000000e+00)
0.425714      	-1.784028e-02	(0.000000e+00 0.000000e+00 0.000000e+00)
0.428571      	-1.778113e-02	(0.000000e+00 0.000000e+00 0.000000e+00)
0.431429      	-1.771350e-02	(0.000000e+00 0.000000e+00 0.000000e+00)
0.434286      	-1.763956e-02	(0.000000e+00 0.000000e+00 0.000000e+00)
0.437143      	-1.755755e-02	(0.000000e+00 0.000000e+00 0.000000e+00)
0.44          	-1.746771e-02	(0.000000e+00 0.000000e+00 0.000000e+00)
0.442857      	-1.736966e-02	(0.000000e+00 0.000000e+00 0.000000e+00)
0.445714      	-1.726318e-02	(0.000000e+00 0.000000e+00 0.000000e+00)
0.448571      	-1.714846e-02	(0.000000e+00 0.000000e+00 0.000000e+00)
0.451429      	-1.702487e-02	(0.000000e+00 0.000000e+00 0.000000e+00)
0.454286      	-1.689357e-02	(0.000000e+00 0.000000e+00 0.000000e+00)
0.457143      	-1.675320e-02	(0.000000e+00 0.000000e+00 0.000000e+00)
0.46          	-1.667904e-02	(0.000000e+00 0.000000e+00 0.000000e+00)
0.462857      	-1.649404e-02	(0.000000e+00 0.000000e+00 0.000000e+00)
0.465714      	-1.634271e-02	(0.000000e+00 0.000000e+00 0.000000e+00)
0.468571      	-1.615597e-02	(0.000000e+00 0.000000e+00 0.000000e+00)
0.471429      	-1.598348e-02	(0.000000e+00 0.000000e+00 0.000000e+00)
0.474286      	-1.578972e-02	(0.000000e+00 0.000000e+00 0.000000e+00)
0.477143      	-1.559965e-02	(0.000000e+00 0.000000e+00 0.000000e+00)
0.48          	-1.539713e-02	(0.000000e+00 0.000000e+00 0.000000e+00)
0.482857      	-1.519206e-02	(0.000000e+00 0.000000e+00 0.000000e+00)
0.485714      	-1.498173e-02	(0.000000e+00 0.000000e+00 0.000000e+00)
0.488571      	-1.476552e-02	(0.000000e+00 0.000000e+00 0.000000e+00)
0.491429      	-1.454739e-02	(0.000000e+00 0.000000e+00 0.000000e+00)
0.494286      	-1.432313e-02	(0.000000e+00 0.000000e+00 0.000000e+00)
0.497143      	-1.409847e-02	(0.000000e+00 0.000000e+00 0.000000e+00)
0.5           	-1.385866e-02	(0.000000e+00 0.000000e+00 0.000000e+00)
0.502857      	-1.363303e-02	(0.000000e+00 0.000000e+00 0.000000e+00)
0.505714      	-1.338847e-02	(0.000000e+00 0.000000e+00 0.000000e+00)
0.508571      	-1.316077e-02	(0.000000e+00 0.000000e+00 0.000000e+00)
0.511429      	-1.292055e-02	(0.000000e+00 0.000000e+00 0.000000e+00)
0.514286      	-1.268819e-02	(0.000000e+00 0.000000e+00 0.000000e+00)
0.517143      	-1.245026e-02	(0.000000e+00 0.000000e+00 0.000000e+00)
0.52          	-1.221748e-02	(0.000000e+00 0.000000e+00 0.000000e+00)
0.523333      	-1.187889e-02	(0.000000e+00 0.000000e+00 0.000000e+00)
0.526667      	-1.166420e-02	(0.000000e+00 0.000000e+00 0.000000e+00)
0.53          	-1.136232e-02	(0.000000e+00 0.000000e+00 0.000000e+00)
0.533333      	-1.111833e-02	(0.000000e+00 0.000000e+00 0.000000e+00)
0.536667      	-1.084078e-02	(0.000000e+00 0.000000e+00 0.000000e+00)
0.54          	-1.059897e-02	(0.000000e+00 0.000000e+00 0.000000e+00)
0.543333      	-1.032634e-02	(0.000000e+00 0.000000e+00 0.000000e+00)
0.546667      	-1.010799e-02	(0.000000e+00 0.000000e+00 0.000000e+00)
0.55          	-9.845076e-03	(0.000000e+00 0.000000e+00 0.000000e+00)
0.553333      	-9.626652e-03	(0.000000e+00 0.000000e+00 0.000000e+00)
0.556667      	-9.381699e-03	(0.000000e+00 0.000000e+00 0.000000e+00)
0.56          	-9.168446e-03	(0.000000e+00 0.000000e+00 0.000000e+00)
0.563333      	-8.939897e-03	(0.000000e+00 0.000000e+00 0.000000e+00)
0.566667      	-8.734259e-03	(0.000000e+00 0.000000e+00 0.000000e+00)
0.57          	-8.522770e-03	(0.000000e+00 0.000000e+00 0.000000e+00)
0.573333      	-8.324888e-03	(0.000000e+00 0.000000e+00 0.000000e+00)
0.576667      	-8.132519e-03	(0.000000e+00 0.000000e+00 0.000000e+00)
0.58          	-7.941293e-03	(0.000000e+00 0.000000e+00 0.000000e+00)
0.583333      	-7.758905e-03	(0.000000e+00 0.000000e+00 0.000000e+00)
0.586667      	-7.580419e-03	(0.000000e+00 0.000000e+00 0.000000e+00)
0.59          	-7.408949e-03	(0.000000e+00 0.000000e+00 0.000000e+00)
0.593333      	-7.242348e-03	(0.000000e+00 0.000000e+00 0.000000e+00)
0.596667      	-7.081690e-03	(0.000000e+00 0.000000e+00 0.000000e+00)
0.6           	-6.926098e-03	(0.000000e+00 0.000000e+00 0.000000e+00)
0.603333      	-6.775935e-03	(0.000000e+00 0.000000e+00 0.000000e+00)
0.606667      	-6.630777e-03	(0.000000e+00 0.000000e+00 0.000000e+00)
0.61          	-6.490698e-03	(0.000000e+00 0.000000e+00 0.000000e+00)
0.613333      	-6.355196e-03	(0.000000e+00 0.000000e+00 0.000000e+00)
0.616667      	-6.224461e-03	(0.000000e+00 0.000000e+00 0.000000e+00)
0.62          	-6.098122e-03	(0.000000e+00 0.000000e+00 0.000000e+00)
0.623333      	-5.976226e-03	(0.000000e+00 0.000000e+00 0.000000e+00)
0.626667      	-5.858082e-03	(0.000000e+00 0.000000e+00 0.000000e+00)
0.63          	-5.744184e-03	(0.000000e+00 0.000000e+00 0.000000e+00)
0.633333      	-5.633887e-03	(0.000000e+00 0.000000e+00 0.000000e+00)
0.636667      	-5.527766e-03	(0.000000e+00 0.000000e+00 0.000000e+00)
0.64          	-5.424488e-03	(0.000000e+00 0.000000e+00 0.000000e+00)
0.643333      	-5.324957e-03	(0.000000e+00 0.000000e+00 0.000000e+00)
0.646667      	-5.228382e-03	(0.000000e+00 0.000000e+00 0.000000e+00)
0.65          	-5.131018e-03	(0.000000e+00 0.000000e+00 0.000000e+00)
0.653333      	-5.043452e-03	(0.000000e+00 0.000000e+00 0.000000e+00)
0.656667      	-4.953685e-03	(0.000000e+00 0.000000e+00 0.000000e+00)
0.66          	-4.870391e-03	(0.000000e+00 0.000000e+00 0.000000e+00)
0.664         	-4.705421e-03	(0.000000e+00 0.000000e+00 0.000000e+00)
0.668         	-4.656237e-03	(0.000000e+00 0.000000e+00 0.000000e+00)
0.672         	-4.532549e-03	(0.000000e+00 0.000000e+00 0.000000e+00)
0.676         	-4.476339e-03	(0.000000e+00 0.000000e+00 0.000000e+00)
0.68          	-4.364222e-03	(0.000000e+00 0.000000e+00 0.000000e+00)
0.684         	-4.307006e-03	(0.000000e+00 0.000000e+00 0.000000e+00)
0.688         	-4.205611e-03	(0.000000e+00 0.000000e+00 0.000000e+00)
0.692         	-4.147913e-03	(0.000000e+00 0.000000e+00 0.000000e+00)
0.696         	-4.056249e-03	(0.000000e+00 0.000000e+00 0.000000e+00)
0.7           	-3.998437e-03	(0.000000e+00 0.000000e+00 0.000000e+00)
0.704         	-3.914623e-03	(0.000000e+00 0.000000e+00 0.000000e+00)
0.708         	-3.857370e-03	(0.000000e+00 0.000000e+00 0.000000e+00)
0.712         	-3.780130e-03	(0.000000e+00 0.000000e+00 0.000000e+00)
0.716         	-3.723900e-03	(0.000000e+00 0.000000e+00 0.000000e+00)
0.72          	-3.652235e-03	(0.000000e+00 0.000000e+00 0.000000e+00)
0.724         	-3.597198e-03	(0.000000e+00 0.000000e+00 0.000000e+00)
0.728         	-3.530371e-03	(0.000000e+00 0.000000e+00 0.000000e+00)
0.732         	-3.476479e-03	(0.000000e+00 0.000000e+00 0.000000e+00)
0.736         	-3.413806e-03	(0.000000e+00 0.000000e+00 0.000000e+00)
0.74          	-3.361418e-03	(0.000000e+00 0.000000e+00 0.000000e+00)
0.744         	-3.302252e-03	(0.000000e+00 0.000000e+00 0.000000e+00)
0.748         	-3.251309e-03	(0.000000e+00 0.000000e+00 0.000000e+00)
0.752         	-3.195277e-03	(0.000000e+00 0.000000e+00 0.000000e+00)
0.756         	-3.145830e-03	(0.000000e+00 0.000000e+00 0.000000e+00)
0.76          	-3.092484e-03	(0.000000e+00 0.000000e+00 0.000000e+00)
0.764         	-3.044513e-03	(0.000000e+00 0.000000e+00 0.000000e+00)
0.768         	-2.993639e-03	(0.000000e+00 0.000000e+00 0.000000e+00)
0.772         	-2.947070e-03	(0.000000e+00 0.000000e+00 0.000000e+00)
0.776         	-2.898335e-03	(0.000000e+00 0.000000e+00 0.000000e+00)
0.78          	-2.853272e-03	(0.000000e+00 0.000000e+00 0.000000e+00)
0.784         	-2.806473e-03	(0.000000e+00 0.000000e+00 0.000000e+00)
0.788         	-2.762774e-03	(0.000000e+00 0.000000e+00 0.000000e+00)
0.792         	-2.717830e-03	(0.000000e+00 0.000000e+00 0.000000e+00)
0.796         	-2.675419e-03	(0.000000e+00 0.000000e+00 0.000000e+00)
0.8           	-2.632219e-03	(0.000000e+00 0.000000e+00 0.000000e+00)
0.804         	-2.591033e-03	(0.000000e+00 0.000000e+00 0.000000e+00)
0.808         	-2.549490e-03	(0.000000e+00 0.000000e+00 0.000000e+00)
0.812         	-2.509465e-03	(0.000000e+00 0.000000e+00 0.000000e+00)
0.816         	-2.469401e-03	(0.000000e+00 0.000000e+00 0.000000e+00)
0.82          	-2.430628e-03	(0.000000e+00 0.000000e+00 0.000000e+00)
0.824         	-2.391848e-03	(0.000000e+00 0.000000e+00 0.000000e+00)
0.828         	-2.354315e-03	(0.000000e+00 0.000000e+00 0.000000e+00)
0.832         	-2.316835e-03	(0.000000e+00 0.000000e+00 0.000000e+00)
0.836         	-2.280417e-03	(0.000000e+00 0.000000e+00 0.000000e+00)
0.84          	-2.244190e-03	(0.000000e+00 0.000000e+00 0.000000e+00)
0.844         	-2.208874e-03	(0.000000e+00 0.000000e+00 0.000000e+00)
0.848         	-2.173833e-03	(0.000000e+00 0.000000e+00 0.000000e+00)
0.852         	-2.139539e-03	(0.000000e+00 0.000000e+00 0.000000e+00)
0.856         	-2.105728e-03	(0.000000e+00 0.000000e+00 0.000000e+00)
0.86          	-2.072463e-03	(0.000000e+00 0.000000e+00 0.000000e+00)
0.864         	-2.039681e-03	(0.000000e+00 0.000000e+00 0.000000e+00)
0.868         	-2.007495e-03	(0.000000e+00 0.000000e+00 0.000000e+00)
0.872         	-1.975661e-03	(0.000000e+00 0.000000e+00 0.000000e+00)
0.876         	-1.944564e-03	(0.000000e+00 0.000000e+00 0.000000e+00)
0.88          	-1.913734e-03	(0.000000e+00 0.000000e+00 0.000000e+00)
0.884         	-1.883553e-03	(0.000000e+00 0.000000e+00 0.000000e+00)
0.888         	-1.856912e-03	(0.000000e+00 0.000000e+00 0.000000e+00)
0.892         	-1.825638e-03	(0.000000e+00 0.000000e+00 0.000000e+00)
0.896         	-1.798604e-03	(0.000000e+00 0.000000e+00 0.000000e+00)
0.9           	-1.768758e-03	(0.000000e+00 0.000000e+00 0.000000e+00)
0.904         	-1.742182e-03	(0.000000e+00 0.000000e+00 0.000000e+00)
0.908         	-1.713553e-03	(0.000000e+00 0.000000e+00 0.000000e+00)
0.912         	-1.687508e-03	(0.000000e+00 0.000000e+00 0.000000e+00)
0.916         	-1.660071e-03	(0.000000e+00 0.000000e+00 0.000000e+00)
0.92          	-1.634593e-03	(0.000000e+00 0.000000e+00 0.000000e+00)
0.924         	-1.608212e-03	(0.000000e+00 0.000000e+00 0.000000e+00)
0.928         	-1.583384e-03	(0.000000e+00 0.000000e+00 0.000000e+00)
0.932         	-1.557966e-03	(0.000000e+00 0.000000e+00 0.000000e+00)
0.936         	-1.533822e-03	(0.000000e+00 0.000000e+00 0.000000e+00)
0.94          	-1.509331e-03	(0.000000e+00 0.000000e+00 0.000000e+00)
0.944         	-1.485841e-03	(0.000000e+00 0.000000e+00 0.000000e+00)
0.948         	-1.462240e-03	(0.000000e+00 0.000000e+00 0.000000e+00)
0.952         	-1.439392e-03	(0.000000e+00 0.000000e+00 0.000000e+00)
0.956         	-1.416626e-03	(0.000000e+00 0.000000e+00 0.000000e+00)
0.96          	-1.394510e-03	(0.000000e+00 0.000000e+00 0.000000e+00)
0.964         	-1.372482e-03	(0.000000e+00 0.000000e+00 0.000000e+00)
0.968         	-1.351058e-03	(0.000000e+00 0.000000e+00 0.000000e+00)
0.972         	-1.329777e-03	(0.000000e+00 0.000000e+00 0.000000e+00)
0.976         	-1.309031e-03	(0.000000e+00 0.000000e+00 0.000000e+00)
0.98          	-1.288464e-03	(0.000000e+00 0.000000e+00 0.000000e+00)
0.984         	-1.268376e-03	(0.000000e+00 0.000000e+00 0.000000e+00)
0.988         	-1.248507e-03	(0.000000e+00 0.000000e+00 0.000000e+00)
0.992         	-1.229052e-03	(0.000000e+00 0.000000e+00 0.000000e+00)
0.996         	-1.209834e-03	(0.000000e+00 0.000000e+00 0.000000e+00)
1             	-1.191033e-03	(0.000000e+00 0.000000e+00 0.000000e+00)
